TACC:  Starting up job 3095211 
TACC:  Starting parallel tasks... 

     Program PWSCF v.6.7GPU starts on 13Jun2021 at  4:22:41 

     This program is part of the open-source Quantum ESPRESSO suite
     for quantum simulation of materials; please cite
         "P. Giannozzi et al., J. Phys.:Condens. Matter 21 395502 (2009);
         "P. Giannozzi et al., J. Phys.:Condens. Matter 29 465901 (2017);
         "P. Giannozzi et al., J. Chem. Phys. 152 154105 (2020);
          URL http://www.quantum-espresso.org", 
     in publications or presentations arising from this work. More details at
     http://www.quantum-espresso.org/quote

     Parallel version (MPI), running on    28 processors

     MPI processes distributed on     1 nodes
     K-points division:     npool     =       2
     R & G space division:  proc/nbgrp/npool/nimage =      14
     Waiting for input...
     Reading input from standard input

     Current dimensions of program PWSCF are:
     Max number of different atomic species (ntypx) = 10
     Max number of k-points (npk) =  40000
     Max angular momentum in pseudopotentials (lmaxx) =  3

     Atomic positions and unit cell read from directory:
     ./si_333_equil.save/
     Atomic positions from file used, from input discarded
 
     Found symmetry operation: I + (  0.3333  0.0000  0.0000)
     This is a supercell, fractional translations are disabled

     Subspace diagonalization in iterative solution of the eigenvalue problem:
     one sub-group per band group will be used
     scalapack distributed-memory algorithm (size of sub-group:  3*  3 procs)

 
     Parallelization info
     --------------------
     sticks:   dense  smooth     PW     G-vecs:    dense   smooth      PW
     Min         184     184     57                 6181     6181    1075
     Max         186     186     58                 6183     6183    1078
     Sum        2587    2587    805                86547    86547   15065
 
     Using Slab Decomposition
 


     bravais-lattice index     =            2
     lattice parameter (alat)  =      30.6000  a.u.
     unit-cell volume          =    7163.1540 (a.u.)^3
     number of atoms/cell      =           54
     number of atomic types    =            1
     number of electrons       =       216.00
     number of Kohn-Sham states=          135
     kinetic-energy cutoff     =      20.0000  Ry
     charge density cutoff     =      80.0000  Ry
     Exchange-correlation= SLA  PZ   NOGX NOGC
                           (   1   1   0   0   0   0   0)

     celldm(1)=  30.600000  celldm(2)=   0.000000  celldm(3)=   0.000000
     celldm(4)=   0.000000  celldm(5)=   0.000000  celldm(6)=   0.000000

     crystal axes: (cart. coord. in units of alat)
               a(1) = (  -0.500000   0.000000   0.500000 )  
               a(2) = (   0.000000   0.500000   0.500000 )  
               a(3) = (  -0.500000   0.500000   0.000000 )  

     reciprocal axes: (cart. coord. in units 2 pi/alat)
               b(1) = ( -1.000000 -1.000000  1.000000 )  
               b(2) = (  1.000000  1.000000  1.000000 )  
               b(3) = ( -1.000000  1.000000 -1.000000 )  


     PseudoPot. # 1 for Si read from file:
     ./Si.pz-vbc.UPF
     MD5 check sum: 9f25e6ff280f3123e9b3a84715b2e9c9
     Pseudo is Norm-conserving, Zval =  4.0
     Generated by new atomic code, or converted to UPF format
     Using radial grid of  431 points,  2 beta functions with: 
                l(1) =   0
                l(2) =   1

     atomic species   valence    mass     pseudopotential
        Si             4.00    28.08600     Si( 1.00)

     24 Sym. Ops. (no inversion) found



   Cartesian axes

     site n.     atom                  positions (alat units)
         1           Si  tau(   1) = (   0.0000000   0.0000000   0.0000000  )
         2           Si  tau(   2) = (   0.0833333   0.0833333   0.0833333  )
         3           Si  tau(   3) = (  -0.1666667   0.0000000   0.1666667  )
         4           Si  tau(   4) = (  -0.0833333   0.0833333   0.2500000  )
         5           Si  tau(   5) = (  -0.3333333   0.0000000   0.3333333  )
         6           Si  tau(   6) = (  -0.2500000   0.0833333   0.4166667  )
         7           Si  tau(   7) = (   0.0000000   0.1666667   0.1666667  )
         8           Si  tau(   8) = (   0.0833333   0.2500000   0.2500000  )
         9           Si  tau(   9) = (  -0.1666667   0.1666667   0.3333333  )
        10           Si  tau(  10) = (  -0.0833333   0.2500000   0.4166667  )
        11           Si  tau(  11) = (  -0.3333333   0.1666667   0.5000000  )
        12           Si  tau(  12) = (  -0.2500000   0.2500000   0.5833333  )
        13           Si  tau(  13) = (   0.0000000   0.3333333   0.3333333  )
        14           Si  tau(  14) = (   0.0833333   0.4166667   0.4166667  )
        15           Si  tau(  15) = (  -0.1666667   0.3333333   0.5000000  )
        16           Si  tau(  16) = (  -0.0833333   0.4166667   0.5833333  )
        17           Si  tau(  17) = (  -0.3333333   0.3333333   0.6666667  )
        18           Si  tau(  18) = (  -0.2500000   0.4166667   0.7500000  )
        19           Si  tau(  19) = (  -0.1666667   0.1666667   0.0000000  )
        20           Si  tau(  20) = (  -0.0833333   0.2500000   0.0833333  )
        21           Si  tau(  21) = (  -0.3333333   0.1666667   0.1666667  )
        22           Si  tau(  22) = (  -0.2500000   0.2500000   0.2500000  )
        23           Si  tau(  23) = (  -0.5000000   0.1666667   0.3333333  )
        24           Si  tau(  24) = (  -0.4166667   0.2500000   0.4166667  )
        25           Si  tau(  25) = (  -0.1666667   0.3333333   0.1666667  )
        26           Si  tau(  26) = (  -0.0833333   0.4166667   0.2500000  )
        27           Si  tau(  27) = (  -0.3333333   0.3333333   0.3333333  )
        28           Si  tau(  28) = (  -0.2500000   0.4166667   0.4166667  )
        29           Si  tau(  29) = (  -0.5000000   0.3333333   0.5000000  )
        30           Si  tau(  30) = (  -0.4166667   0.4166667   0.5833333  )
        31           Si  tau(  31) = (  -0.1666667   0.5000000   0.3333333  )
        32           Si  tau(  32) = (  -0.0833333   0.5833333   0.4166667  )
        33           Si  tau(  33) = (  -0.3333333   0.5000000   0.5000000  )
        34           Si  tau(  34) = (  -0.2500000   0.5833333   0.5833333  )
        35           Si  tau(  35) = (  -0.5000000   0.5000000   0.6666667  )
        36           Si  tau(  36) = (  -0.4166667   0.5833333   0.7500000  )
        37           Si  tau(  37) = (  -0.3333333   0.3333333   0.0000000  )
        38           Si  tau(  38) = (  -0.2500000   0.4166667   0.0833333  )
        39           Si  tau(  39) = (  -0.5000000   0.3333333   0.1666667  )
        40           Si  tau(  40) = (  -0.4166667   0.4166667   0.2500000  )
        41           Si  tau(  41) = (  -0.6666667   0.3333333   0.3333333  )
        42           Si  tau(  42) = (  -0.5833333   0.4166667   0.4166667  )
        43           Si  tau(  43) = (  -0.3333333   0.5000000   0.1666667  )
        44           Si  tau(  44) = (  -0.2500000   0.5833333   0.2500000  )
        45           Si  tau(  45) = (  -0.5000000   0.5000000   0.3333333  )
        46           Si  tau(  46) = (  -0.4166667   0.5833333   0.4166667  )
        47           Si  tau(  47) = (  -0.6666667   0.5000000   0.5000000  )
        48           Si  tau(  48) = (  -0.5833333   0.5833333   0.5833333  )
        49           Si  tau(  49) = (  -0.3333333   0.6666667   0.3333333  )
        50           Si  tau(  50) = (  -0.2500000   0.7500000   0.4166667  )
        51           Si  tau(  51) = (  -0.5000000   0.6666667   0.5000000  )
        52           Si  tau(  52) = (  -0.4166667   0.7500000   0.5833333  )
        53           Si  tau(  53) = (  -0.6666667   0.6666667   0.6666667  )
        54           Si  tau(  54) = (  -0.5833333   0.7500000   0.7500000  )

     number of k points=     2
                       cart. coord. in units 2pi/alat
        k(    1) = (   0.0000000   0.0000000   0.0000000), wk =   1.0000000
        k(    2) = (   0.0000000   2.5200000   0.0000000), wk =   1.0000000

     Dense  grid:    86547 G-vectors     FFT dimensions: (  64,  64,  64)

     Estimated max dynamical RAM per process >      13.59 MB

     Estimated total dynamical RAM >     380.52 MB

     The potential is recalculated from file :
     ./si_333_equil.save/charge-density

     Starting wfcs are  216 randomized atomic wfcs

     Band Structure Calculation
     Davidson diagonalization with overlap

     ethr =  4.63E-11,  avg # of iterations = 55.0

     total cpu time spent up to now is        3.5 secs

     End of band structure calculation

          k = 0.0000 0.0000 0.0000 ( 10849 PWs)   bands (ev):

    -5.8114  -4.4084  -4.4081  -4.4081  -4.4081  -4.4078  -4.4078  -4.4078
    -4.4075  -3.8750  -3.8750  -3.8750  -3.8750  -3.8750  -3.8750  -2.4770
    -2.4770  -2.4770  -2.4770  -2.4770  -2.4769  -2.4769  -2.4769  -2.4769
    -2.4769  -2.4769  -2.4768  -0.5444  -0.5444  -0.5444  -0.5444  -0.5444
    -0.5443  -0.5443  -0.5443  -0.5443  -0.5443  -0.5443  -0.5443   0.8585
     0.8586   0.8586   0.8586   0.8586   0.8586   0.8586   0.8587   1.2512
     1.2512   1.2512   1.2512   1.2512   1.2512   1.7144   1.7145   1.7145
     1.7145   1.7145   1.7145   1.7145   1.7145   1.7145   1.7146   1.7146
     1.7146   3.7811   3.7811   3.7811   3.7811   3.7811   3.7811   3.7814
     3.7814   3.7814   3.7814   3.7814   3.7814   4.0945   4.0945   4.0945
     4.0945   4.0945   4.0945   4.0945   4.0945   4.0945   4.0945   4.0945
     4.0945   5.2333   5.2333   5.2333   5.2334   5.2334   5.2335   5.2335
     5.2335   5.2336   5.2336   5.2336   5.2336   5.2336   5.2337   5.2337
     5.2337   6.2534   6.2534   6.2534   6.9099   6.9099   6.9099   6.9099
     6.9099   6.9099   7.7627   7.7627   7.7627   7.7627   7.7627   7.7627
     7.7627   7.7627   7.7627   7.7628   7.7628   7.7628   8.0361   8.0361
     8.0361   8.0361   8.0362   8.0362   8.0362   8.0362   8.1765

          k = 0.0000 2.5200 0.0000 ( 10874 PWs)   bands (ev):

    -5.6769  -4.7430  -4.7428  -4.7428  -4.7425  -4.7417  -3.8703  -3.8701
    -3.8701  -3.8698  -3.7670  -3.7670  -3.7670  -3.7669  -3.0452  -3.0452
    -3.0452  -3.0452  -2.7829  -2.7177  -2.7176  -2.7176  -2.7174  -1.9163
    -1.9163  -1.9163  -1.9163  -1.0466  -1.0466  -1.0466  -1.0466  -0.5990
    -0.5989  -0.5989  -0.5989  -0.2784   0.0389   0.0389   0.0389   0.0389
     0.0577   0.0577   0.0577   0.0578   1.0560   1.0560   1.0560   1.0560
     1.8529   1.8529   1.8529   1.8530   1.8958   1.8958   1.8958   1.8958
     2.0072   2.0072   2.0072   2.0072   2.3023   2.3025   2.3025   2.3026
     2.8172   3.3136   3.3136   3.3136   3.3136   3.3732   3.3732   3.3732
     3.3732   3.4403   3.4403   3.7841   3.7841   3.7841   3.7841   4.1180
     4.1180   4.1180   4.1180   4.1907   4.1907   4.1907   4.1907   4.3439
     4.3439   4.4876   4.4877   4.4877   4.4878   4.6083   4.6085   4.6085
     4.6086   4.7997   4.7997   4.7997   4.7997   5.5288   5.5688   5.5688
     5.5688   5.5689   5.7835   5.7835   6.7435   7.3256   7.3454   7.6417
     7.6417   7.6417   7.6417   7.9113   7.9113   7.9113   7.9113   7.9777
     7.9777   7.9777   7.9777   8.4092   8.4092   8.4092   8.4092   8.5076
     8.7147   8.7147   8.7147   8.7147   8.7466   8.7466   8.7466

     highest occupied, lowest unoccupied level (ev):     6.2534    6.7435

     Writing output data file ./si_333_equil.save/
 
     init_run     :      0.08s CPU      0.20s WALL (       1 calls)
     electrons    :      2.79s CPU      2.91s WALL (       1 calls)

     Called by init_run:
     wfcinit      :      0.00s CPU      0.00s WALL (       1 calls)
     potinit      :      0.02s CPU      0.07s WALL (       1 calls)
     hinit0       :      0.00s CPU      0.06s WALL (       1 calls)

     Called by electrons:
     c_bands      :      2.79s CPU      2.91s WALL (       1 calls)
     v_of_rho     :      0.00s CPU      0.01s WALL (       1 calls)

     Called by c_bands:
     init_us_2    :      0.00s CPU      0.00s WALL (       1 calls)
     cegterg      :      1.85s CPU      1.92s WALL (       2 calls)

     Called by *egterg:
     cdiaghg      :      0.52s CPU      0.56s WALL (      35 calls)
     h_psi        :      0.87s CPU      0.91s WALL (      37 calls)
     g_psi        :      0.01s CPU      0.01s WALL (      34 calls)

     Called by h_psi:
     h_psi:calbec :      0.09s CPU      0.10s WALL (      37 calls)
     vloc_psi     :      0.70s CPU      0.72s WALL (      37 calls)
     add_vuspsi   :      0.08s CPU      0.09s WALL (      37 calls)

     General routines
     calbec       :      0.09s CPU      0.10s WALL (      37 calls)
     fft          :      0.00s CPU      0.05s WALL (       3 calls)
     fftw         :      0.60s CPU      0.62s WALL (    5746 calls)
     davcio       :      0.00s CPU      0.00s WALL (       2 calls)
 
     Parallel routines
 
     PWSCF        :      2.98s CPU      3.61s WALL

 
   This run was terminated on:   4:22:45  13Jun2021            

=------------------------------------------------------------------------------=
   JOB DONE.
=------------------------------------------------------------------------------=
TACC:  Shutdown complete. Exiting. 
