TACC:  Starting up job 3033441 
TACC:  Starting parallel tasks... 

     Program PWSCF v.6.7GPU starts on 30May2021 at  9:25:59 

     This program is part of the open-source Quantum ESPRESSO suite
     for quantum simulation of materials; please cite
         "P. Giannozzi et al., J. Phys.:Condens. Matter 21 395502 (2009);
         "P. Giannozzi et al., J. Phys.:Condens. Matter 29 465901 (2017);
         "P. Giannozzi et al., J. Chem. Phys. 152 154105 (2020);
          URL http://www.quantum-espresso.org", 
     in publications or presentations arising from this work. More details at
     http://www.quantum-espresso.org/quote

     Parallel version (MPI), running on     4 processors

     MPI processes distributed on     1 nodes
     K-points division:     npool     =       4
     Waiting for input...
     Reading input from standard input
     Message from routine read_cards :
     DEPRECATED: no units specified in ATOMIC_POSITIONS card
     Message from routine read_cards :
     ATOMIC_POSITIONS: units set to alat

     Current dimensions of program PWSCF are:
     Max number of different atomic species (ntypx) = 10
     Max number of k-points (npk) =  40000
     Max angular momentum in pseudopotentials (lmaxx) =  3

     Atomic positions and unit cell read from directory:
     ./si.save/
 

     Subspace diagonalization in iterative solution of the eigenvalue problem:
     a serial algorithm will be used

 
     G-vector sticks info
     --------------------
     sticks:   dense  smooth     PW     G-vecs:    dense   smooth      PW
     Sum         283     283     91                 3143     3143     609
 
     Using Slab Decomposition
 


     bravais-lattice index     =            2
     lattice parameter (alat)  =      10.2000  a.u.
     unit-cell volume          =     265.3020 (a.u.)^3
     number of atoms/cell      =            2
     number of atomic types    =            1
     number of electrons       =         8.00
     number of Kohn-Sham states=            5
     kinetic-energy cutoff     =      20.0000  Ry
     charge density cutoff     =      80.0000  Ry
     Exchange-correlation= SLA  PZ   NOGX NOGC
                           (   1   1   0   0   0   0   0)

     celldm(1)=  10.200000  celldm(2)=   0.000000  celldm(3)=   0.000000
     celldm(4)=   0.000000  celldm(5)=   0.000000  celldm(6)=   0.000000

     crystal axes: (cart. coord. in units of alat)
               a(1) = (  -0.500000   0.000000   0.500000 )  
               a(2) = (   0.000000   0.500000   0.500000 )  
               a(3) = (  -0.500000   0.500000   0.000000 )  

     reciprocal axes: (cart. coord. in units 2 pi/alat)
               b(1) = ( -1.000000 -1.000000  1.000000 )  
               b(2) = (  1.000000  1.000000  1.000000 )  
               b(3) = ( -1.000000  1.000000 -1.000000 )  


     PseudoPot. # 1 for Si read from file:
     ./Si.pz-vbc.UPF
     MD5 check sum: 9f25e6ff280f3123e9b3a84715b2e9c9
     Pseudo is Norm-conserving, Zval =  4.0
     Generated by new atomic code, or converted to UPF format
     Using radial grid of  431 points,  2 beta functions with: 
                l(1) =   0
                l(2) =   1

     atomic species   valence    mass     pseudopotential
        Si             4.00    28.08600     Si( 1.00)

     48 Sym. Ops., with inversion, found (24 have fractional translation)



   Cartesian axes

     site n.     atom                  positions (alat units)
         1           Si  tau(   1) = (   0.0000000   0.0000000   0.0000000  )
         2           Si  tau(   2) = (   0.2500000   0.2500000   0.2500000  )

     number of k points=    51
                       cart. coord. in units 2pi/alat
        k(    1) = (   0.0000000   0.0000000   0.0000000), wk =   0.0392157
        k(    2) = (   0.0000000   0.0200000   0.0000000), wk =   0.0392157
        k(    3) = (   0.0000000   0.0400000   0.0000000), wk =   0.0392157
        k(    4) = (   0.0000000   0.0600000   0.0000000), wk =   0.0392157
        k(    5) = (   0.0000000   0.0800000   0.0000000), wk =   0.0392157
        k(    6) = (   0.0000000   0.1000000   0.0000000), wk =   0.0392157
        k(    7) = (   0.0000000   0.1200000   0.0000000), wk =   0.0392157
        k(    8) = (   0.0000000   0.1400000   0.0000000), wk =   0.0392157
        k(    9) = (   0.0000000   0.1600000   0.0000000), wk =   0.0392157
        k(   10) = (   0.0000000   0.1800000   0.0000000), wk =   0.0392157
        k(   11) = (   0.0000000   0.2000000   0.0000000), wk =   0.0392157
        k(   12) = (   0.0000000   0.2200000   0.0000000), wk =   0.0392157
        k(   13) = (   0.0000000   0.2400000   0.0000000), wk =   0.0392157
        k(   14) = (   0.0000000   0.2600000   0.0000000), wk =   0.0392157
        k(   15) = (   0.0000000   0.2800000   0.0000000), wk =   0.0392157
        k(   16) = (   0.0000000   0.3000000   0.0000000), wk =   0.0392157
        k(   17) = (   0.0000000   0.3200000   0.0000000), wk =   0.0392157
        k(   18) = (   0.0000000   0.3400000   0.0000000), wk =   0.0392157
        k(   19) = (   0.0000000   0.3600000   0.0000000), wk =   0.0392157
        k(   20) = (   0.0000000   0.3800000   0.0000000), wk =   0.0392157
        k(   21) = (   0.0000000   0.4000000   0.0000000), wk =   0.0392157
        k(   22) = (   0.0000000   0.4200000   0.0000000), wk =   0.0392157
        k(   23) = (   0.0000000   0.4400000   0.0000000), wk =   0.0392157
        k(   24) = (   0.0000000   0.4600000   0.0000000), wk =   0.0392157
        k(   25) = (   0.0000000   0.4800000   0.0000000), wk =   0.0392157
        k(   26) = (   0.0000000   0.5000000   0.0000000), wk =   0.0392157
        k(   27) = (   0.0000000   0.5200000   0.0000000), wk =   0.0392157
        k(   28) = (   0.0000000   0.5400000   0.0000000), wk =   0.0392157
        k(   29) = (   0.0000000   0.5600000   0.0000000), wk =   0.0392157
        k(   30) = (   0.0000000   0.5800000   0.0000000), wk =   0.0392157
        k(   31) = (   0.0000000   0.6000000   0.0000000), wk =   0.0392157
        k(   32) = (   0.0000000   0.6200000   0.0000000), wk =   0.0392157
        k(   33) = (   0.0000000   0.6400000   0.0000000), wk =   0.0392157
        k(   34) = (   0.0000000   0.6600000   0.0000000), wk =   0.0392157
        k(   35) = (   0.0000000   0.6800000   0.0000000), wk =   0.0392157
        k(   36) = (   0.0000000   0.7000000   0.0000000), wk =   0.0392157
        k(   37) = (   0.0000000   0.7200000   0.0000000), wk =   0.0392157
        k(   38) = (   0.0000000   0.7400000   0.0000000), wk =   0.0392157
        k(   39) = (   0.0000000   0.7600000   0.0000000), wk =   0.0392157
        k(   40) = (   0.0000000   0.7800000   0.0000000), wk =   0.0392157
        k(   41) = (   0.0000000   0.8000000   0.0000000), wk =   0.0392157
        k(   42) = (   0.0000000   0.8200000   0.0000000), wk =   0.0392157
        k(   43) = (   0.0000000   0.8400000   0.0000000), wk =   0.0392157
        k(   44) = (   0.0000000   0.8600000   0.0000000), wk =   0.0392157
        k(   45) = (   0.0000000   0.8800000   0.0000000), wk =   0.0392157
        k(   46) = (   0.0000000   0.9000000   0.0000000), wk =   0.0392157
        k(   47) = (   0.0000000   0.9200000   0.0000000), wk =   0.0392157
        k(   48) = (   0.0000000   0.9400000   0.0000000), wk =   0.0392157
        k(   49) = (   0.0000000   0.9600000   0.0000000), wk =   0.0392157
        k(   50) = (   0.0000000   0.9800000   0.0000000), wk =   0.0392157
        k(   51) = (   0.0000000   1.0000000   0.0000000), wk =   0.0392157

     Dense  grid:     3143 G-vectors     FFT dimensions: (  24,  24,  24)

     Estimated max dynamical RAM per process >       1.60 MB

     Estimated total dynamical RAM >       6.42 MB

     The potential is recalculated from file :
     ./si.save/charge-density

     Starting wfcs are    8 randomized atomic wfcs

     Band Structure Calculation
     Davidson diagonalization with overlap
     c_bands:  1 eigenvalues not converged

     ethr =  1.25E-09,  avg # of iterations = 24.3

     total cpu time spent up to now is        0.5 secs

     End of band structure calculation

          k = 0.0000 0.0000 0.0000 (   411 PWs)   bands (ev):

    -5.8114   6.2534   6.2534   6.2534   8.8172

          k = 0.0000 0.0200 0.0000 (   411 PWs)   bands (ev):

    -5.8096   6.2416   6.2455   6.2455   8.8126

          k = 0.0000 0.0400 0.0000 (   411 PWs)   bands (ev):

    -5.8043   6.2068   6.2221   6.2221   8.7987

          k = 0.0000 0.0600 0.0000 (   407 PWs)   bands (ev):

    -5.7954   6.1510   6.1846   6.1846   8.7760

          k = 0.0000 0.0800 0.0000 (   407 PWs)   bands (ev):

    -5.7830   6.0748   6.1340   6.1340   8.7448

          k = 0.0000 0.1000 0.0000 (   403 PWs)   bands (ev):

    -5.7670   5.9816   6.0730   6.0730   8.7058

          k = 0.0000 0.1200 0.0000 (   403 PWs)   bands (ev):

    -5.7474   5.8732   6.0022   6.0022   8.6596

          k = 0.0000 0.1400 0.0000 (   399 PWs)   bands (ev):

    -5.7239   5.7527   5.9244   5.9244   8.6073

          k = 0.0000 0.1600 0.0000 (   399 PWs)   bands (ev):

    -5.6973   5.6212   5.8407   5.8407   8.5491

          k = 0.0000 0.1800 0.0000 (   391 PWs)   bands (ev):

    -5.6665   5.4812   5.7537   5.7537   8.4862

          k = 0.0000 0.2000 0.0000 (   391 PWs)   bands (ev):

    -5.6328   5.3339   5.6624   5.6624   8.4192

          k = 0.0000 0.2200 0.0000 (   391 PWs)   bands (ev):

    -5.5956   5.1806   5.5689   5.5689   8.3489

          k = 0.0000 0.2400 0.0000 (   391 PWs)   bands (ev):

    -5.5549   5.0225   5.4741   5.4741   8.2762

          k = 0.0000 0.2600 0.0000 (   391 PWs)   bands (ev):

    -5.5107   4.8602   5.3787   5.3787   8.2015

          k = 0.0000 0.2800 0.0000 (   391 PWs)   bands (ev):

    -5.4629   4.6946   5.2831   5.2831   8.1256

          k = 0.0000 0.3000 0.0000 (   399 PWs)   bands (ev):

    -5.4125   4.5260   5.1874   5.1874   8.0472

          k = 0.0000 0.3200 0.0000 (   399 PWs)   bands (ev):

    -5.3578   4.3552   5.0930   5.0930   7.9701

          k = 0.0000 0.3400 0.0000 (   399 PWs)   bands (ev):

    -5.2997   4.1824   4.9996   4.9996   7.8933

          k = 0.0000 0.3600 0.0000 (   399 PWs)   bands (ev):

    -5.2381   4.0080   4.9077   4.9077   7.8171

          k = 0.0000 0.3800 0.0000 (   399 PWs)   bands (ev):

    -5.1731   3.8321   4.8173   4.8173   7.7418

          k = 0.0000 0.4000 0.0000 (   399 PWs)   bands (ev):

    -5.1047   3.6551   4.7288   4.7288   7.6678

          k = 0.0000 0.4200 0.0000 (   399 PWs)   bands (ev):

    -5.0329   3.4771   4.6422   4.6422   7.5954

          k = 0.0000 0.4400 0.0000 (   407 PWs)   bands (ev):

    -4.9584   3.2979   4.5577   4.5577   7.5246

          k = 0.0000 0.4600 0.0000 (   407 PWs)   bands (ev):

    -4.8799   3.1184   4.4755   4.4755   7.4561

          k = 0.0000 0.4800 0.0000 (   415 PWs)   bands (ev):

    -4.7982   2.9375   4.3957   4.3957   7.3883

          k = 0.0000 0.5000 0.0000 (   415 PWs)   bands (ev):

    -4.7130   2.7570   4.3183   4.3183   7.3244

          k = 0.0000 0.5200 0.0000 (   415 PWs)   bands (ev):

    -4.6245   2.5762   4.2436   4.2436   7.2632

          k = 0.0000 0.5400 0.0000 (   415 PWs)   bands (ev):

    -4.5327   2.3951   4.1714   4.1714   7.2049

          k = 0.0000 0.5600 0.0000 (   411 PWs)   bands (ev):

    -4.4368   2.2142   4.1027   4.1027   7.1494

          k = 0.0000 0.5800 0.0000 (   411 PWs)   bands (ev):

    -4.3385   2.0331   4.0361   4.0361   7.0971

          k = 0.0000 0.6000 0.0000 (   411 PWs)   bands (ev):

    -4.2371   1.8520   3.9722   3.9722   7.0480

          k = 0.0000 0.6200 0.0000 (   411 PWs)   bands (ev):

    -4.1325   1.6711   3.9112   3.9112   7.0023

          k = 0.0000 0.6400 0.0000 (   411 PWs)   bands (ev):

    -4.0248   1.4905   3.8531   3.8531   6.9599

          k = 0.0000 0.6600 0.0000 (   399 PWs)   bands (ev):

    -3.9126   1.3112   3.7989   3.7989   6.9220

          k = 0.0000 0.6800 0.0000 (   407 PWs)   bands (ev):

    -3.7992   1.1296   3.7465   3.7465   6.8849

          k = 0.0000 0.7000 0.0000 (   403 PWs)   bands (ev):

    -3.6823   0.9505   3.6975   3.6975   6.8535

          k = 0.0000 0.7200 0.0000 (   403 PWs)   bands (ev):

    -3.5624   0.7720   3.6514   3.6514   6.8259

          k = 0.0000 0.7400 0.0000 (   403 PWs)   bands (ev):

    -3.4396   0.5944   3.6084   3.6084   6.8022

          k = 0.0000 0.7600 0.0000 (   404 PWs)   bands (ev):

    -3.3139   0.4176   3.5685   3.5685   6.7814

          k = 0.0000 0.7800 0.0000 (   404 PWs)   bands (ev):

    -3.1853   0.2418   3.5317   3.5317   6.7657

          k = 0.0000 0.8000 0.0000 (   404 PWs)   bands (ev):

    -3.0539   0.0672   3.4980   3.4980   6.7540

          k = 0.0000 0.8200 0.0000 (   404 PWs)   bands (ev):

    -2.9197  -0.1062   3.4676   3.4676   6.7466

          k = 0.0000 0.8400 0.0000 (   404 PWs)   bands (ev):

    -2.7829  -0.2784   3.4402   3.4402   6.7435

          k = 0.0000 0.8600 0.0000 (   396 PWs)   bands (ev):

    -2.6432  -0.4482   3.4166   3.4166   6.7476

          k = 0.0000 0.8800 0.0000 (   396 PWs)   bands (ev):

    -2.5011  -0.6175   3.3956   3.3956   6.7531

          k = 0.0000 0.9000 0.0000 (   392 PWs)   bands (ev):

    -2.3560  -0.7851   3.3780   3.3780   6.7636

          k = 0.0000 0.9200 0.0000 (   392 PWs)   bands (ev):

    -2.2089  -0.9510   3.3635   3.3635   6.7781

          k = 0.0000 0.9400 0.0000 (   392 PWs)   bands (ev):

    -2.0594  -1.1152   3.3522   3.3522   6.7972

          k = 0.0000 0.9600 0.0000 (   392 PWs)   bands (ev):

    -1.9075  -1.2776   3.3441   3.3441   6.8210

          k = 0.0000 0.9800 0.0000 (   388 PWs)   bands (ev):

    -1.7525  -1.4379   3.3394   3.3394   6.8504

          k = 0.0000 1.0000 0.0000 (   388 PWs)   bands (ev):

    -1.5963  -1.5963   3.3377   3.3377   6.8836

     Writing output data file ./si.save/
 
     init_run     :      0.01s CPU      0.01s WALL (       1 calls)
     electrons    :      0.21s CPU      0.24s WALL (       1 calls)

     Called by init_run:
     wfcinit      :      0.00s CPU      0.00s WALL (       1 calls)
     potinit      :      0.00s CPU      0.00s WALL (       1 calls)
     hinit0       :      0.01s CPU      0.01s WALL (       1 calls)

     Called by electrons:
     c_bands      :      0.21s CPU      0.24s WALL (       1 calls)
     v_of_rho     :      0.00s CPU      0.00s WALL (       1 calls)

     Called by c_bands:
     init_us_2    :      0.00s CPU      0.00s WALL (      13 calls)
     cegterg      :      0.20s CPU      0.22s WALL (      33 calls)

     Called by *egterg:
     cdiaghg      :      0.02s CPU      0.02s WALL (     548 calls)
     h_psi        :      0.16s CPU      0.17s WALL (     581 calls)
     g_psi        :      0.00s CPU      0.00s WALL (     535 calls)

     Called by h_psi:
     h_psi:calbec :      0.00s CPU      0.00s WALL (     581 calls)
     vloc_psi     :      0.15s CPU      0.16s WALL (     581 calls)
     add_vuspsi   :      0.00s CPU      0.01s WALL (     581 calls)

     General routines
     calbec       :      0.00s CPU      0.00s WALL (     581 calls)
     fft          :      0.00s CPU      0.00s WALL (       3 calls)
     fftw         :      0.11s CPU      0.12s WALL (    3552 calls)
     davcio       :      0.00s CPU      0.00s WALL (      26 calls)
 
     Parallel routines
 
     PWSCF        :      0.30s CPU      0.52s WALL

 
   This run was terminated on:   9:25:59  30May2021            

=------------------------------------------------------------------------------=
   JOB DONE.
=------------------------------------------------------------------------------=
TACC:  Shutdown complete. Exiting. 
