TACC:  Starting up job 3095199 
TACC:  Starting parallel tasks... 

     Program PWSCF v.6.7GPU starts on 13Jun2021 at  4: 9:14 

     This program is part of the open-source Quantum ESPRESSO suite
     for quantum simulation of materials; please cite
         "P. Giannozzi et al., J. Phys.:Condens. Matter 21 395502 (2009);
         "P. Giannozzi et al., J. Phys.:Condens. Matter 29 465901 (2017);
         "P. Giannozzi et al., J. Chem. Phys. 152 154105 (2020);
          URL http://www.quantum-espresso.org", 
     in publications or presentations arising from this work. More details at
     http://www.quantum-espresso.org/quote

     Parallel version (MPI), running on    56 processors

     MPI processes distributed on     1 nodes
     K-points division:     npool     =       8
     R & G space division:  proc/nbgrp/npool/nimage =       7
     Waiting for input...
     Reading input from standard input

     Current dimensions of program PWSCF are:
     Max number of different atomic species (ntypx) = 10
     Max number of k-points (npk) =  40000
     Max angular momentum in pseudopotentials (lmaxx) =  3

     Subspace diagonalization in iterative solution of the eigenvalue problem:
     one sub-group per band group will be used
     scalapack distributed-memory algorithm (size of sub-group:  2*  2 procs)

 
     Parallelization info
     --------------------
     sticks:   dense  smooth     PW     G-vecs:    dense   smooth      PW
     Min         369     369    100                12363    12363    1762
     Max         370     370    101                12364    12364    1764
     Sum        2587    2587    703                86547    86547   12339
 
     Using Slab Decomposition
 


     bravais-lattice index     =            2
     lattice parameter (alat)  =      30.6000  a.u.
     unit-cell volume          =    7163.1540 (a.u.)^3
     number of atoms/cell      =           54
     number of atomic types    =            1
     number of electrons       =       216.00
     number of Kohn-Sham states=          108
     kinetic-energy cutoff     =      20.0000  Ry
     charge density cutoff     =      80.0000  Ry
     scf convergence threshold =      1.0E-07
     mixing beta               =       0.7000
     number of iterations used =            8  plain     mixing
     Exchange-correlation= SLA  PZ   NOGX NOGC
                           (   1   1   0   0   0   0   0)

     celldm(1)=  30.600000  celldm(2)=   0.000000  celldm(3)=   0.000000
     celldm(4)=   0.000000  celldm(5)=   0.000000  celldm(6)=   0.000000

     crystal axes: (cart. coord. in units of alat)
               a(1) = (  -0.500000   0.000000   0.500000 )  
               a(2) = (   0.000000   0.500000   0.500000 )  
               a(3) = (  -0.500000   0.500000   0.000000 )  

     reciprocal axes: (cart. coord. in units 2 pi/alat)
               b(1) = ( -1.000000 -1.000000  1.000000 )  
               b(2) = (  1.000000  1.000000  1.000000 )  
               b(3) = ( -1.000000  1.000000 -1.000000 )  


     PseudoPot. # 1 for Si read from file:
     ./Si.pz-vbc.UPF
     MD5 check sum: 9f25e6ff280f3123e9b3a84715b2e9c9
     Pseudo is Norm-conserving, Zval =  4.0
     Generated by new atomic code, or converted to UPF format
     Using radial grid of  431 points,  2 beta functions with: 
                l(1) =   0
                l(2) =   1

     atomic species   valence    mass     pseudopotential
        Si             4.00    28.08600     Si( 1.00)

     No symmetry found



   Cartesian axes

     site n.     atom                  positions (alat units)
         1           Si  tau(   1) = (   0.0046104  -0.0012521   0.0007309  )
         2           Si  tau(   2) = (   0.0823387   0.0859342   0.0831619  )
         3           Si  tau(   3) = (  -0.1611350   0.0017335   0.1664866  )
         4           Si  tau(   4) = (  -0.0820274   0.0835288   0.2506426  )
         5           Si  tau(   5) = (  -0.3363676   0.0026941   0.3327901  )
         6           Si  tau(   6) = (  -0.2438717   0.0873976   0.4077950  )
         7           Si  tau(   7) = (   0.0011966   0.1628910   0.1702415  )
         8           Si  tau(   8) = (   0.0867880   0.2500323   0.2532154  )
         9           Si  tau(   9) = (  -0.1659707   0.1675269   0.3284672  )
        10           Si  tau(  10) = (  -0.0834937   0.2478489   0.4150943  )
        11           Si  tau(  11) = (  -0.3383767   0.1640648   0.4982939  )
        12           Si  tau(  12) = (  -0.2543653   0.2480075   0.5818687  )
        13           Si  tau(  13) = (   0.0018640   0.3342819   0.3318517  )
        14           Si  tau(  14) = (   0.0823904   0.4138368   0.4154394  )
        15           Si  tau(  15) = (  -0.1629263   0.3307274   0.4974290  )
        16           Si  tau(  16) = (  -0.0818367   0.4171001   0.5858529  )
        17           Si  tau(  17) = (  -0.3346096   0.3354340   0.6622633  )
        18           Si  tau(  18) = (  -0.2508309   0.4191034   0.7523870  )
        19           Si  tau(  19) = (  -0.1688613   0.1683512   0.0022269  )
        20           Si  tau(  20) = (  -0.0835180   0.2427546   0.0835896  )
        21           Si  tau(  21) = (  -0.3351470   0.1701973   0.1713379  )
        22           Si  tau(  22) = (  -0.2512438   0.2553049   0.2474367  )
        23           Si  tau(  23) = (  -0.5054607   0.1601676   0.3359778  )
        24           Si  tau(  24) = (  -0.4185308   0.2472476   0.4151632  )
        25           Si  tau(  25) = (  -0.1674321   0.3306952   0.1676580  )
        26           Si  tau(  26) = (  -0.0833086   0.4194624   0.2526917  )
        27           Si  tau(  27) = (  -0.3266477   0.3354499   0.3345063  )
        28           Si  tau(  28) = (  -0.2462607   0.4128151   0.4207368  )
        29           Si  tau(  29) = (  -0.4981255   0.3327949   0.5012928  )
        30           Si  tau(  30) = (  -0.4213878   0.4190288   0.5844952  )
        31           Si  tau(  31) = (  -0.1678541   0.4969582   0.3357464  )
        32           Si  tau(  32) = (  -0.0872478   0.5792313   0.4182823  )
        33           Si  tau(  33) = (  -0.3339872   0.5020319   0.5003662  )
        34           Si  tau(  34) = (  -0.2511717   0.5857638   0.5877651  )
        35           Si  tau(  35) = (  -0.4993409   0.4971192   0.6666240  )
        36           Si  tau(  36) = (  -0.4209718   0.5867492   0.7535777  )
        37           Si  tau(  37) = (  -0.3365955   0.3324941   0.0009689  )
        38           Si  tau(  38) = (  -0.2453884   0.4122297   0.0817308  )
        39           Si  tau(  39) = (  -0.4984887   0.3325313   0.1727302  )
        40           Si  tau(  40) = (  -0.4152671   0.4184436   0.2507736  )
        41           Si  tau(  41) = (  -0.6638304   0.3367444   0.3356733  )
        42           Si  tau(  42) = (  -0.5799677   0.4171491   0.4188155  )
        43           Si  tau(  43) = (  -0.3331754   0.5016543   0.1603804  )
        44           Si  tau(  44) = (  -0.2496271   0.5823015   0.2440473  )
        45           Si  tau(  45) = (  -0.5034450   0.5078440   0.3362446  )
        46           Si  tau(  46) = (  -0.4118378   0.5829187   0.4158818  )
        47           Si  tau(  47) = (  -0.6692551   0.4957102   0.4963772  )
        48           Si  tau(  48) = (  -0.5855578   0.5857955   0.5805227  )
        49           Si  tau(  49) = (  -0.3314853   0.6664424   0.3346640  )
        50           Si  tau(  50) = (  -0.2477569   0.7523061   0.4129408  )
        51           Si  tau(  51) = (  -0.5021619   0.6670397   0.4962550  )
        52           Si  tau(  52) = (  -0.4209771   0.7496676   0.5841296  )
        53           Si  tau(  53) = (  -0.6669913   0.6676729   0.6624158  )
        54           Si  tau(  54) = (  -0.5850704   0.7480409   0.7519623  )

     number of k points=     8
                       cart. coord. in units 2pi/alat
        k(    1) = (   0.0000000   0.0000000   0.0000000), wk =   0.2500000
        k(    2) = (   0.5000000  -0.5000000   0.5000000), wk =   0.2500000
        k(    3) = (   0.0000000  -1.0000000   0.0000000), wk =   0.2500000
        k(    4) = (  -0.5000000   0.5000000   0.5000000), wk =   0.2500000
        k(    5) = (  -0.5000000  -0.5000000  -0.5000000), wk =   0.2500000
        k(    6) = (   0.5000000   0.5000000  -0.5000000), wk =   0.2500000
        k(    7) = (  -1.0000000   0.0000000   0.0000000), wk =   0.2500000
        k(    8) = (   0.0000000   0.0000000  -1.0000000), wk =   0.2500000

     Dense  grid:    86547 G-vectors     FFT dimensions: (  64,  64,  64)

     Estimated max dynamical RAM per process >      26.91 MB

     Estimated total dynamical RAM >       1.33 GB

     Initial potential from superposition of free atoms

     starting charge  215.97322, renormalised to  216.00000
     Starting wfcs are  216 randomized atomic wfcs

     total cpu time spent up to now is        0.4 secs

     Self-consistent Calculation

     iteration #  1     ecut=    20.00 Ry     beta= 0.70
     Davidson diagonalization with overlap
     ethr =  1.00E-02,  avg # of iterations =  2.0

     Threshold (ethr) on eigenvalues was too large:
     Diagonalizing with lowered threshold

     Davidson diagonalization with overlap
     ethr =  7.09E-04,  avg # of iterations =  1.0

     total cpu time spent up to now is        1.1 secs

     total energy              =    -427.61645083 Ry
     estimated scf accuracy    <       1.68687172 Ry

     iteration #  2     ecut=    20.00 Ry     beta= 0.70
     Davidson diagonalization with overlap
     ethr =  7.81E-04,  avg # of iterations =  1.4

     total cpu time spent up to now is        1.4 secs

     total energy              =    -427.70770223 Ry
     estimated scf accuracy    <       0.06408000 Ry

     iteration #  3     ecut=    20.00 Ry     beta= 0.70
     Davidson diagonalization with overlap
     ethr =  2.97E-05,  avg # of iterations =  3.2

     total cpu time spent up to now is        1.8 secs

     total energy              =    -427.71664767 Ry
     estimated scf accuracy    <       0.01186738 Ry

     iteration #  4     ecut=    20.00 Ry     beta= 0.70
     Davidson diagonalization with overlap
     ethr =  5.49E-06,  avg # of iterations =  3.4

     total cpu time spent up to now is        2.3 secs

     total energy              =    -427.71869055 Ry
     estimated scf accuracy    <       0.01663041 Ry

     iteration #  5     ecut=    20.00 Ry     beta= 0.70
     Davidson diagonalization with overlap
     ethr =  5.49E-06,  avg # of iterations =  2.2

     total cpu time spent up to now is        2.7 secs

     total energy              =    -427.72173593 Ry
     estimated scf accuracy    <       0.00012718 Ry

     iteration #  6     ecut=    20.00 Ry     beta= 0.70
     Davidson diagonalization with overlap
     ethr =  5.89E-08,  avg # of iterations =  5.6

     total cpu time spent up to now is        3.3 secs

     total energy              =    -427.72179114 Ry
     estimated scf accuracy    <       0.00043844 Ry

     iteration #  7     ecut=    20.00 Ry     beta= 0.70
     Davidson diagonalization with overlap
     ethr =  5.89E-08,  avg # of iterations =  2.0

     total cpu time spent up to now is        3.6 secs

     total energy              =    -427.72179702 Ry
     estimated scf accuracy    <       0.00009051 Ry

     iteration #  8     ecut=    20.00 Ry     beta= 0.70
     Davidson diagonalization with overlap
     ethr =  4.19E-08,  avg # of iterations =  2.1

     total cpu time spent up to now is        4.0 secs

     total energy              =    -427.72181209 Ry
     estimated scf accuracy    <       0.00000143 Ry

     iteration #  9     ecut=    20.00 Ry     beta= 0.70
     Davidson diagonalization with overlap
     ethr =  6.61E-10,  avg # of iterations =  5.2

     total cpu time spent up to now is        4.6 secs

     total energy              =    -427.72181305 Ry
     estimated scf accuracy    <       0.00000259 Ry

     iteration # 10     ecut=    20.00 Ry     beta= 0.70
     Davidson diagonalization with overlap
     ethr =  6.61E-10,  avg # of iterations =  2.0

     total cpu time spent up to now is        4.9 secs

     total energy              =    -427.72181297 Ry
     estimated scf accuracy    <       0.00000078 Ry

     iteration # 11     ecut=    20.00 Ry     beta= 0.70
     Davidson diagonalization with overlap
     ethr =  3.63E-10,  avg # of iterations =  2.1

     total cpu time spent up to now is        5.3 secs

     End of self-consistent calculation

          k = 0.0000 0.0000 0.0000 ( 10849 PWs)   bands (ev):

    -5.8361  -4.5993  -4.5214  -4.4855  -4.4519  -4.3989  -4.3701  -4.3543
    -4.3259  -3.9599  -3.9345  -3.9007  -3.8625  -3.8262  -3.7843  -2.6373
    -2.6031  -2.5960  -2.5537  -2.5065  -2.4958  -2.4664  -2.4379  -2.4238
    -2.3879  -2.3609  -2.3180  -0.7144  -0.6732  -0.6366  -0.6186  -0.5833
    -0.5682  -0.5435  -0.4925  -0.4805  -0.4621  -0.4557  -0.3754   0.7632
     0.7806   0.7922   0.8091   0.8303   0.8865   0.9089   0.9363   1.1394
     1.2411   1.2465   1.2788   1.3025   1.3240   1.6239   1.6352   1.6696
     1.6774   1.6951   1.7128   1.7259   1.7532   1.7647   1.7932   1.8160
     1.8334   3.6567   3.6744   3.6843   3.7041   3.7369   3.7401   3.7606
     3.7938   3.8124   3.8199   3.8540   3.8849   4.0195   4.0238   4.0415
     4.0562   4.0829   4.0981   4.1093   4.1247   4.1602   4.1737   4.1873
     4.2367   5.0277   5.0774   5.1124   5.1780   5.1915   5.2173   5.2254
     5.2412   5.2610   5.2672   5.2923   5.3263   5.3399   5.3686   5.4193
     5.4218   6.2752   6.2792   6.2993

          k = 0.5000-0.5000 0.5000 ( 10790 PWs)   bands (ev):

    -5.5097  -5.4312  -4.6532  -4.5716  -4.4987  -4.4775  -4.4524  -4.4244
    -3.8045  -3.7425  -3.7230  -3.6372  -3.6212  -3.5682  -3.4019  -2.8364
    -2.7619  -2.7433  -2.6850  -2.6463  -2.6389  -2.5380  -2.4899  -2.4536
    -2.4428  -2.3807  -2.3388  -0.8523  -0.7590  -0.6897  -0.6789  -0.6337
    -0.5917  -0.5335  -0.4564  -0.3673  -0.3507  -0.2961  -0.2502  -0.2222
     0.1280   0.1322   0.1875   0.2269   0.2595   0.2769   1.7106   1.7259
     1.7512   1.7942   1.8077   1.8747   2.0593   2.0956   2.1191   2.1837
     2.1991   2.2143   2.4414   2.4837   2.5076   2.5302   2.5529   2.5879
     3.0389   3.0921   3.1148   3.1514   3.1691   3.2044   3.3451   3.3687
     3.3955   3.4283   3.4475   3.5069   3.5741   3.5935   3.6042   3.6742
     3.6903   3.7106   3.8518   3.8862   4.1055   4.1772   4.2058   4.2635
     4.2957   4.3226   4.3905   4.4233   4.4722   4.5002   4.5265   4.5690
     4.8038   4.8874   4.9057   4.9814   5.0058   5.0333   5.1055   5.1203
     5.7432   5.7647   5.8752   5.9254

          k = 0.0000-1.0000 0.0000 ( 10846 PWs)   bands (ev):

    -5.3922  -5.3128  -4.9407  -4.8615  -4.8500  -4.8055  -3.6786  -3.5892
    -3.5722  -3.5497  -3.5254  -3.4809  -3.4120  -3.4093  -3.3662  -3.3331
    -3.2986  -3.2548  -3.2039  -3.1780  -3.1494  -3.1379  -1.6737  -1.6452
    -1.5716  -1.5615  -1.4860  -1.4608  -1.4478  -1.4125  -1.4047  -1.3425
    -0.5219  -0.5137  -0.4739  -0.4354  -0.4070  -0.3922  -0.3498  -0.3382
     0.5061   0.5233   0.5626   0.5785   0.5973   0.6368   0.6985   0.7209
     2.3329   2.3828   2.4117   2.4311   2.4387   2.4671   2.4828   2.4943
     2.5050   2.5272   2.5380   2.5588   2.5670   2.5918   2.6036   2.6186
     2.6463   2.6613   2.6900   2.7156   3.3030   3.3190   3.3554   3.3685
     3.3868   3.4102   3.4273   3.4452   3.4738   3.5077   3.7293   3.7499
     3.7578   3.7839   3.8485   3.8678   3.8986   3.9106   3.9303   3.9486
     3.9830   3.9887   4.2217   4.2539   4.3667   4.3802   4.4060   4.4446
     4.4886   4.4897   4.5359   4.5865   5.0095   5.0226   5.0804   5.1049
     5.6460   5.6605   5.7517   5.7832

          k =-0.5000 0.5000 0.5000 ( 10790 PWs)   bands (ev):

    -5.5061  -5.4358  -4.6460  -4.5357  -4.5213  -4.4961  -4.4542  -4.4330
    -3.7769  -3.7258  -3.7130  -3.7028  -3.5912  -3.5609  -3.4241  -2.8071
    -2.7685  -2.7570  -2.6970  -2.6525  -2.6050  -2.5236  -2.4810  -2.4728
    -2.4461  -2.3919  -2.3523  -0.8705  -0.7676  -0.7149  -0.6510  -0.6361
    -0.5617  -0.5443  -0.4734  -0.3806  -0.3100  -0.2853  -0.2315  -0.2229
     0.1106   0.1621   0.1880   0.2143   0.2395   0.2805   1.7024   1.7130
     1.7369   1.7825   1.8116   1.8888   2.0833   2.1089   2.1191   2.1649
     2.1886   2.2121   2.4609   2.4883   2.5104   2.5195   2.5564   2.5745
     3.0418   3.0569   3.1003   3.1465   3.1791   3.1987   3.3443   3.3757
     3.4021   3.4431   3.4560   3.4808   3.5612   3.5822   3.6490   3.6726
     3.6988   3.7146   3.8315   3.8969   4.1283   4.1709   4.1959   4.2831
     4.3000   4.3312   4.4174   4.4374   4.4518   4.4814   4.5461   4.5686
     4.8513   4.8995   4.9198   4.9655   4.9977   5.0283   5.0619   5.0874
     5.7378   5.7862   5.8518   5.9024

          k =-0.5000-0.5000-0.5000 ( 10790 PWs)   bands (ev):

    -5.5123  -5.4279  -4.6212  -4.5930  -4.5086  -4.5045  -4.4355  -4.4244
    -3.7916  -3.7630  -3.6908  -3.6446  -3.5935  -3.5866  -3.4227  -2.8119
    -2.7584  -2.7562  -2.6792  -2.6620  -2.6286  -2.5475  -2.4854  -2.4423
    -2.4194  -2.3918  -2.3769  -0.8500  -0.7427  -0.7308  -0.6702  -0.6543
    -0.6056  -0.4860  -0.4096  -0.3699  -0.3509  -0.2996  -0.2607  -0.2457
     0.1311   0.1784   0.1868   0.2206   0.2284   0.2768   1.6906   1.7473
     1.7607   1.7688   1.8299   1.8439   2.0646   2.1013   2.1169   2.1535
     2.2047   2.2316   2.4636   2.4885   2.4963   2.5224   2.5546   2.5757
     3.0598   3.0932   3.1017   3.1380   3.1481   3.1983   3.3588   3.3909
     3.4092   3.4399   3.4535   3.4627   3.5683   3.5820   3.6285   3.6588
     3.7070   3.7263   3.8426   3.8886   4.1383   4.1826   4.2052   4.2499
     4.2868   4.3200   4.3752   4.4139   4.4508   4.5090   4.5451   4.6001
     4.8384   4.8778   4.9450   4.9812   5.0041   5.0109   5.0594   5.1068
     5.7440   5.7904   5.8628   5.9103

          k = 0.5000 0.5000-0.5000 ( 10790 PWs)   bands (ev):

    -5.5119  -5.4277  -4.6337  -4.5890  -4.5416  -4.4654  -4.4527  -4.4012
    -3.7627  -3.7340  -3.7288  -3.6634  -3.6250  -3.5733  -3.4081  -2.8087
    -2.7762  -2.7729  -2.7036  -2.6189  -2.5959  -2.5345  -2.5014  -2.4825
    -2.4380  -2.3845  -2.3464  -0.8542  -0.7181  -0.6733  -0.6714  -0.6418
    -0.5887  -0.5625  -0.5010  -0.3573  -0.3302  -0.2902  -0.2676  -0.1988
     0.1206   0.1424   0.1986   0.2247   0.2481   0.2612   1.6412   1.7075
     1.7538   1.8269   1.8332   1.9149   2.0646   2.0840   2.1355   2.1602
     2.2013   2.2225   2.4628   2.4973   2.5149   2.5210   2.5322   2.5717
     3.0316   3.0770   3.0912   3.1161   3.1769   3.2081   3.3226   3.3892
     3.3938   3.4297   3.4403   3.5022   3.5887   3.6079   3.6427   3.6729
     3.6907   3.6965   3.8571   3.8832   4.1324   4.1774   4.2347   4.2618
     4.3177   4.3412   4.3967   4.4233   4.4620   4.4861   4.5203   4.5506
     4.8359   4.9094   4.9352   4.9549   4.9573   4.9928   5.0672   5.1487
     5.7438   5.7914   5.8759   5.9055

          k =-1.0000 0.0000 0.0000 ( 10846 PWs)   bands (ev):

    -5.3932  -5.3115  -4.9364  -4.8680  -4.8564  -4.7975  -3.6469  -3.5845
    -3.5802  -3.5599  -3.5334  -3.5082  -3.4408  -3.3868  -3.3628  -3.3133
    -3.2744  -3.2562  -3.2451  -3.1670  -3.1578  -3.1214  -1.7043  -1.6268
    -1.5434  -1.5311  -1.4976  -1.4930  -1.4616  -1.4161  -1.3825  -1.3519
    -0.5229  -0.4885  -0.4758  -0.4516  -0.4037  -0.3848  -0.3729  -0.3316
     0.5069   0.5228   0.5388   0.5949   0.6435   0.6549   0.6619   0.7067
     2.3011   2.3644   2.4168   2.4234   2.4465   2.4636   2.4700   2.4929
     2.5044   2.5300   2.5484   2.5573   2.5696   2.5917   2.6097   2.6147
     2.6505   2.6753   2.7003   2.7282   3.3077   3.3214   3.3497   3.3625
     3.3854   3.4039   3.4371   3.4455   3.4914   3.5001   3.7156   3.7433
     3.7509   3.8021   3.8718   3.8872   3.9007   3.9138   3.9277   3.9504
     3.9594   3.9773   4.2158   4.2581   4.3512   4.3983   4.4030   4.4283
     4.4891   4.4964   4.5206   4.5918   5.0156   5.0439   5.0639   5.1098
     5.6538   5.6655   5.7425   5.7946

          k = 0.0000 0.0000-1.0000 ( 10846 PWs)   bands (ev):

    -5.3919  -5.3104  -4.9529  -4.8741  -4.8325  -4.8008  -3.6715  -3.6344
    -3.5750  -3.5403  -3.5207  -3.4742  -3.4276  -3.3755  -3.3281  -3.3128
    -3.2862  -3.2621  -3.2137  -3.2065  -3.1871  -3.1226  -1.6920  -1.6369
    -1.5842  -1.5446  -1.4904  -1.4732  -1.4545  -1.4360  -1.3675  -1.3314
    -0.5528  -0.4973  -0.4845  -0.4564  -0.3985  -0.3859  -0.3303  -0.3128
     0.5069   0.5109   0.5437   0.6067   0.6441   0.6494   0.6612   0.7005
     2.3482   2.3853   2.4222   2.4324   2.4433   2.4657   2.4688   2.4781
     2.4965   2.5282   2.5449   2.5679   2.5831   2.6027   2.6060   2.6173
     2.6257   2.6543   2.6669   2.6864   3.2980   3.3084   3.3596   3.3710
     3.4002   3.4169   3.4326   3.4428   3.4809   3.4882   3.7148   3.7506
     3.7692   3.7860   3.8219   3.8548   3.8670   3.8844   3.9620   3.9702
     3.9816   4.0280   4.2275   4.2663   4.3602   4.3843   4.4263   4.4564
     4.4840   4.4983   4.5592   4.5655   5.0075   5.0235   5.0899   5.1031
     5.6504   5.6822   5.7422   5.7656

     highest occupied level (ev):     6.2993

!    total energy              =    -427.72181311 Ry
     estimated scf accuracy    <          5.4E-09 Ry

     The total energy is the sum of the following terms:
     one-electron contribution =     128.92801913 Ry
     hartree contribution      =      29.37423143 Ry
     xc contribution           =    -130.05942281 Ry
     ewald contribution        =    -455.96464086 Ry

     convergence has been achieved in  11 iterations

     Writing output data file ./si_333_ZG.save/
 
     init_run     :      0.30s CPU      0.34s WALL (       1 calls)
     electrons    :      4.72s CPU      4.94s WALL (       1 calls)

     Called by init_run:
     wfcinit      :      0.21s CPU      0.22s WALL (       1 calls)
     potinit      :      0.08s CPU      0.09s WALL (       1 calls)
     hinit0       :      0.01s CPU      0.01s WALL (       1 calls)

     Called by electrons:
     c_bands      :      4.22s CPU      4.39s WALL (      12 calls)
     sum_band     :      0.43s CPU      0.44s WALL (      12 calls)
     v_of_rho     :      0.03s CPU      0.04s WALL (      12 calls)
     mix_rho      :      0.03s CPU      0.03s WALL (      12 calls)

     Called by c_bands:
     init_us_2    :      0.07s CPU      0.08s WALL (      25 calls)
     cegterg      :      4.10s CPU      4.27s WALL (      12 calls)

     Called by *egterg:
     cdiaghg      :      0.56s CPU      0.58s WALL (      53 calls)
     h_psi        :      2.64s CPU      2.74s WALL (      55 calls)
     g_psi        :      0.02s CPU      0.02s WALL (      42 calls)

     Called by h_psi:
     h_psi:calbec :      0.27s CPU      0.29s WALL (      55 calls)
     vloc_psi     :      2.06s CPU      2.10s WALL (      55 calls)
     add_vuspsi   :      0.28s CPU      0.30s WALL (      55 calls)

     General routines
     calbec       :      0.27s CPU      0.29s WALL (      55 calls)
     fft          :      0.02s CPU      0.03s WALL (      36 calls)
     ffts         :      0.01s CPU      0.01s WALL (      12 calls)
     fftw         :      2.08s CPU      2.11s WALL (    9104 calls)
 
     Parallel routines
 
     PWSCF        :      5.09s CPU      5.43s WALL

 
   This run was terminated on:   4: 9:19  13Jun2021            

=------------------------------------------------------------------------------=
   JOB DONE.
=------------------------------------------------------------------------------=
TACC:  Shutdown complete. Exiting. 
