TACC:  Starting up job 3032893 
TACC:  Starting parallel tasks... 

     Program PWSCF v.6.7GPU starts on 30May2021 at  8:33: 2 

     This program is part of the open-source Quantum ESPRESSO suite
     for quantum simulation of materials; please cite
         "P. Giannozzi et al., J. Phys.:Condens. Matter 21 395502 (2009);
         "P. Giannozzi et al., J. Phys.:Condens. Matter 29 465901 (2017);
         "P. Giannozzi et al., J. Chem. Phys. 152 154105 (2020);
          URL http://www.quantum-espresso.org", 
     in publications or presentations arising from this work. More details at
     http://www.quantum-espresso.org/quote

     Parallel version (MPI), running on     4 processors

     MPI processes distributed on     1 nodes
     K-points division:     npool     =       4
     Waiting for input...
     Reading input from standard input
     Message from routine read_cards :
     DEPRECATED: no units specified in ATOMIC_POSITIONS card
     Message from routine read_cards :
     ATOMIC_POSITIONS: units set to alat

     Current dimensions of program PWSCF are:
     Max number of different atomic species (ntypx) = 10
     Max number of k-points (npk) =  40000
     Max angular momentum in pseudopotentials (lmaxx) =  3

     Subspace diagonalization in iterative solution of the eigenvalue problem:
     a serial algorithm will be used

 
     G-vector sticks info
     --------------------
     sticks:   dense  smooth     PW     G-vecs:    dense   smooth      PW
     Sum         283     283     97                 3143     3143     645
 
     Using Slab Decomposition
 


     bravais-lattice index     =            2
     lattice parameter (alat)  =      10.2000  a.u.
     unit-cell volume          =     265.3020 (a.u.)^3
     number of atoms/cell      =            2
     number of atomic types    =            1
     number of electrons       =         8.00
     number of Kohn-Sham states=            4
     kinetic-energy cutoff     =      20.0000  Ry
     charge density cutoff     =      80.0000  Ry
     scf convergence threshold =      1.0E-07
     mixing beta               =       0.7000
     number of iterations used =            8  plain     mixing
     Exchange-correlation= SLA  PZ   NOGX NOGC
                           (   1   1   0   0   0   0   0)

     celldm(1)=  10.200000  celldm(2)=   0.000000  celldm(3)=   0.000000
     celldm(4)=   0.000000  celldm(5)=   0.000000  celldm(6)=   0.000000

     crystal axes: (cart. coord. in units of alat)
               a(1) = (  -0.500000   0.000000   0.500000 )  
               a(2) = (   0.000000   0.500000   0.500000 )  
               a(3) = (  -0.500000   0.500000   0.000000 )  

     reciprocal axes: (cart. coord. in units 2 pi/alat)
               b(1) = ( -1.000000 -1.000000  1.000000 )  
               b(2) = (  1.000000  1.000000  1.000000 )  
               b(3) = ( -1.000000  1.000000 -1.000000 )  


     PseudoPot. # 1 for Si read from file:
     ./Si.pz-vbc.UPF
     MD5 check sum: 9f25e6ff280f3123e9b3a84715b2e9c9
     Pseudo is Norm-conserving, Zval =  4.0
     Generated by new atomic code, or converted to UPF format
     Using radial grid of  431 points,  2 beta functions with: 
                l(1) =   0
                l(2) =   1

     atomic species   valence    mass     pseudopotential
        Si             4.00    28.08600     Si( 1.00)

     48 Sym. Ops., with inversion, found (24 have fractional translation)



   Cartesian axes

     site n.     atom                  positions (alat units)
         1           Si  tau(   1) = (   0.0000000   0.0000000   0.0000000  )
         2           Si  tau(   2) = (   0.2500000   0.2500000   0.2500000  )

     number of k points=    16
                       cart. coord. in units 2pi/alat
        k(    1) = (   0.0000000   0.0000000   0.0000000), wk =   0.0092593
        k(    2) = (  -0.1666667   0.1666667  -0.1666667), wk =   0.0740741
        k(    3) = (  -0.3333333   0.3333333  -0.3333333), wk =   0.0740741
        k(    4) = (   0.5000000  -0.5000000   0.5000000), wk =   0.0370370
        k(    5) = (   0.0000000   0.3333333   0.0000000), wk =   0.0555556
        k(    6) = (  -0.1666667   0.5000000  -0.1666667), wk =   0.2222222
        k(    7) = (   0.6666667  -0.3333333   0.6666667), wk =   0.2222222
        k(    8) = (   0.5000000  -0.1666667   0.5000000), wk =   0.2222222
        k(    9) = (   0.3333333   0.0000000   0.3333333), wk =   0.1111111
        k(   10) = (   0.0000000   0.6666667   0.0000000), wk =   0.0555556
        k(   11) = (   0.8333333  -0.1666667   0.8333333), wk =   0.2222222
        k(   12) = (   0.6666667  -0.0000000   0.6666667), wk =   0.1111111
        k(   13) = (   0.0000000  -1.0000000   0.0000000), wk =   0.0277778
        k(   14) = (   0.6666667  -0.3333333   1.0000000), wk =   0.2222222
        k(   15) = (   0.5000000  -0.1666667   0.8333333), wk =   0.2222222
        k(   16) = (  -0.3333333  -1.0000000   0.0000000), wk =   0.1111111

     Dense  grid:     3143 G-vectors     FFT dimensions: (  24,  24,  24)

     Estimated max dynamical RAM per process >       2.59 MB

     Estimated total dynamical RAM >       8.06 MB

     Initial potential from superposition of free atoms

     starting charge    7.99901, renormalised to    8.00000
     Starting wfcs are    8 randomized atomic wfcs

     total cpu time spent up to now is        1.2 secs

     Self-consistent Calculation

     iteration #  1     ecut=    20.00 Ry     beta= 0.70
     Davidson diagonalization with overlap
     ethr =  1.00E-02,  avg # of iterations =  2.0

     Threshold (ethr) on eigenvalues was too large:
     Diagonalizing with lowered threshold

     Davidson diagonalization with overlap
     ethr =  7.03E-04,  avg # of iterations =  1.0

     total cpu time spent up to now is        1.2 secs

     total energy              =     -15.84229105 Ry
     estimated scf accuracy    <       0.06183074 Ry

     iteration #  2     ecut=    20.00 Ry     beta= 0.70
     Davidson diagonalization with overlap
     ethr =  7.73E-04,  avg # of iterations =  1.0

     total cpu time spent up to now is        1.2 secs

     total energy              =     -15.84543653 Ry
     estimated scf accuracy    <       0.00224853 Ry

     iteration #  3     ecut=    20.00 Ry     beta= 0.70
     Davidson diagonalization with overlap
     ethr =  2.81E-05,  avg # of iterations =  2.2

     total cpu time spent up to now is        1.3 secs

     total energy              =     -15.84586253 Ry
     estimated scf accuracy    <       0.00006882 Ry

     iteration #  4     ecut=    20.00 Ry     beta= 0.70
     Davidson diagonalization with overlap
     ethr =  8.60E-07,  avg # of iterations =  2.6

     total cpu time spent up to now is        1.3 secs

     total energy              =     -15.84588487 Ry
     estimated scf accuracy    <       0.00000139 Ry

     iteration #  5     ecut=    20.00 Ry     beta= 0.70
     Davidson diagonalization with overlap
     ethr =  1.73E-08,  avg # of iterations =  4.5

     total cpu time spent up to now is        1.3 secs

     total energy              =     -15.84588636 Ry
     estimated scf accuracy    <       0.00000019 Ry

     iteration #  6     ecut=    20.00 Ry     beta= 0.70
     Davidson diagonalization with overlap
     ethr =  2.35E-09,  avg # of iterations =  2.3

     total cpu time spent up to now is        1.3 secs

     End of self-consistent calculation

          k = 0.0000 0.0000 0.0000 (   411 PWs)   bands (ev):

    -5.8115   6.2534   6.2534   6.2534

          k =-0.1667 0.1667-0.1667 (   387 PWs)   bands (ev):

    -5.4433   3.8568   5.7945   5.7945

          k =-0.3333 0.3333-0.3333 (   401 PWs)   bands (ev):

    -4.4080   0.8586   5.2335   5.2335

          k = 0.5000-0.5000 0.5000 (   392 PWs)   bands (ev):

    -3.4169  -0.8208   5.0331   5.0331

          k = 0.0000 0.3333 0.0000 (   399 PWs)   bands (ev):

    -5.3195   4.2402   5.0306   5.0306

          k =-0.1667 0.5000-0.1667 (   398 PWs)   bands (ev):

    -4.4895   1.7966   4.2249   4.4672

          k = 0.6667-0.3333 0.6667 (   403 PWs)   bands (ev):

    -3.2639  -0.4271   3.4257   4.4383

          k = 0.5000-0.1667 0.5000 (   404 PWs)   bands (ev):

    -3.6624   0.1898   3.1426   4.9296

          k = 0.3333 0.0000 0.3333 (   397 PWs)   bands (ev):

    -4.8453   2.5282   3.7765   5.6805

          k = 0.0000 0.6667 0.0000 (   399 PWs)   bands (ev):

    -3.8751   1.2512   3.7812   3.7812

          k = 0.8333-0.1667 0.8333 (   402 PWs)   bands (ev):

    -2.6876  -0.3265   2.5223   3.6419

          k = 0.6667-0.0000 0.6667 (   403 PWs)   bands (ev):

    -2.4770  -0.5444   1.7145   4.0945

          k = 0.0000-1.0000 0.0000 (   388 PWs)   bands (ev):

    -1.5963  -1.5963   3.3377   3.3377

          k = 0.6667-0.3333 1.0000 (   407 PWs)   bands (ev):

    -3.4804   0.6002   2.5892   3.8993

          k = 0.5000-0.1667 0.8333 (   400 PWs)   bands (ev):

    -2.4648  -0.6285   2.1428   3.4161

          k =-0.3333-1.0000 0.0000 (   398 PWs)   bands (ev):

    -1.4668  -1.4668   2.5066   2.5066

     highest occupied level (ev):     6.2534

!    total energy              =     -15.84588639 Ry
     estimated scf accuracy    <          1.5E-10 Ry

     The total energy is the sum of the following terms:
     one-electron contribution =       4.79006029 Ry
     hartree contribution      =       1.08123128 Ry
     xc contribution           =      -4.81741937 Ry
     ewald contribution        =     -16.89975859 Ry

     convergence has been achieved in   6 iterations

     Writing output data file ./si.save/
 
     init_run     :      0.01s CPU      0.09s WALL (       1 calls)
     electrons    :      0.06s CPU      0.10s WALL (       1 calls)

     Called by init_run:
     wfcinit      :      0.00s CPU      0.03s WALL (       1 calls)
     potinit      :      0.00s CPU      0.01s WALL (       1 calls)
     hinit0       :      0.01s CPU      0.04s WALL (       1 calls)

     Called by electrons:
     c_bands      :      0.04s CPU      0.06s WALL (       7 calls)
     sum_band     :      0.01s CPU      0.01s WALL (       7 calls)
     v_of_rho     :      0.00s CPU      0.00s WALL (       7 calls)
     mix_rho      :      0.00s CPU      0.00s WALL (       7 calls)

     Called by c_bands:
     init_us_2    :      0.00s CPU      0.00s WALL (      60 calls)
     cegterg      :      0.04s CPU      0.04s WALL (      28 calls)

     Called by *egterg:
     cdiaghg      :      0.00s CPU      0.02s WALL (      94 calls)
     h_psi        :      0.04s CPU      0.04s WALL (     102 calls)
     g_psi        :      0.00s CPU      0.00s WALL (      70 calls)

     Called by h_psi:
     h_psi:calbec :      0.00s CPU      0.00s WALL (     102 calls)
     vloc_psi     :      0.03s CPU      0.04s WALL (     102 calls)
     add_vuspsi   :      0.00s CPU      0.00s WALL (     102 calls)

     General routines
     calbec       :      0.00s CPU      0.00s WALL (     102 calls)
     fft          :      0.00s CPU      0.03s WALL (      21 calls)
     ffts         :      0.00s CPU      0.00s WALL (       7 calls)
     fftw         :      0.03s CPU      0.03s WALL (     852 calls)
 
     Parallel routines
 
     PWSCF        :      0.09s CPU      1.38s WALL

 
   This run was terminated on:   8:33: 3  30May2021            

=------------------------------------------------------------------------------=
   JOB DONE.
=------------------------------------------------------------------------------=
TACC:  Shutdown complete. Exiting. 
