
     Program PWSCF v.6.4.1 starts on 31Jul2021 at 13:45:29 

     This program is part of the open-source Quantum ESPRESSO suite
     for quantum simulation of materials; please cite
         "P. Giannozzi et al., J. Phys.:Condens. Matter 21 395502 (2009);
         "P. Giannozzi et al., J. Phys.:Condens. Matter 29 465901 (2017);
          URL http://www.quantum-espresso.org", 
     in publications or presentations arising from this work. More details at
     http://www.quantum-espresso.org/quote

     Parallel version (MPI & OpenMP), running on      12 processor cores
     Number of MPI processes:                 1
     Threads/MPI process:                    12

     MPI processes distributed on     1 nodes
     Waiting for input...
     Reading input from standard input
Warning: card CONV_THR = 1.0D-12 ignored
Warning: card &IONS ignored
Warning: card / ignored

     Current dimensions of program PWSCF are:
     Max number of different atomic species (ntypx) = 10
     Max number of k-points (npk) =  40000
     Max angular momentum in pseudopotentials (lmaxx) =  3

     Subspace diagonalization in iterative solution of the eigenvalue problem:
     a serial algorithm will be used


     G-vector sticks info
     --------------------
     sticks:   dense  smooth     PW     G-vecs:    dense   smooth      PW
     Sum         595     595    199                 9841     9841    1807



     bravais-lattice index     =            2
     lattice parameter (alat)  =       6.6641  a.u.
     unit-cell volume          =      73.9876 (a.u.)^3
     number of atoms/cell      =            2
     number of atomic types    =            1
     number of electrons       =         8.00
     number of Kohn-Sham states=            4
     kinetic-energy cutoff     =     100.0000  Ry
     charge density cutoff     =     400.0000  Ry
     convergence threshold     =      1.0E-06
     mixing beta               =       0.7000
     number of iterations used =            8  plain     mixing
     Exchange-correlation      = SLA PZ NOGX NOGC ( 1  1  0  0 0 0)

     celldm(1)=   6.664070  celldm(2)=   0.000000  celldm(3)=   0.000000
     celldm(4)=   0.000000  celldm(5)=   0.000000  celldm(6)=   0.000000

     crystal axes: (cart. coord. in units of alat)
               a(1) = (  -0.500000   0.000000   0.500000 )  
               a(2) = (   0.000000   0.500000   0.500000 )  
               a(3) = (  -0.500000   0.500000   0.000000 )  

     reciprocal axes: (cart. coord. in units 2 pi/alat)
               b(1) = ( -1.000000 -1.000000  1.000000 )  
               b(2) = (  1.000000  1.000000  1.000000 )  
               b(3) = ( -1.000000  1.000000 -1.000000 )  


     PseudoPot. # 1 for C  read from file:
     ./\C.pz-vbc.UPF
     MD5 check sum: f697e42eaa1e52b77fcf7925dd36a1dd
     Pseudo is Norm-conserving, Zval =  4.0
     Generated by new atomic code, or converted to UPF format
     Using radial grid of  269 points,  1 beta functions with: 
                l(1) =   0

     atomic species   valence    mass     pseudopotential
        C              4.00     1.00000     C ( 1.00)

     48 Sym. Ops., with inversion, found (24 have fractional translation)



   Cartesian axes

     site n.     atom                  positions (alat units)
         1           C   tau(   1) = (   0.0000000   0.0000000   0.0000000  )
         2           C   tau(   2) = (  -0.2500000   0.2500000   0.2500000  )

     number of k points=    10
                       cart. coord. in units 2pi/alat
        k(    1) = (  -0.1250000   0.1250000   0.1250000), wk =   0.0625000
        k(    2) = (  -0.3750000   0.3750000  -0.1250000), wk =   0.1875000
        k(    3) = (   0.3750000  -0.3750000   0.6250000), wk =   0.1875000
        k(    4) = (   0.1250000  -0.1250000   0.3750000), wk =   0.1875000
        k(    5) = (  -0.1250000   0.6250000   0.1250000), wk =   0.1875000
        k(    6) = (   0.6250000  -0.1250000   0.8750000), wk =   0.3750000
        k(    7) = (   0.3750000   0.1250000   0.6250000), wk =   0.3750000
        k(    8) = (  -0.1250000  -0.8750000   0.1250000), wk =   0.1875000
        k(    9) = (  -0.3750000   0.3750000   0.3750000), wk =   0.0625000
        k(   10) = (   0.3750000  -0.3750000   1.1250000), wk =   0.1875000

     Dense  grid:     9841 G-vectors     FFT dimensions: (  32,  32,  32)

     Estimated max dynamical RAM per process >       7.86 MB

     Initial potential from superposition of free atoms

     starting charge    7.99994, renormalised to    8.00000
     Starting wfcs are    8 randomized atomic wfcs

     total cpu time spent up to now is        0.2 secs

     Self-consistent Calculation

     iteration #  1     ecut=   100.00 Ry     beta= 0.70
     Davidson diagonalization with overlap
     ethr =  1.00E-02,  avg # of iterations =  2.0

     total cpu time spent up to now is        0.2 secs

     total energy              =     -22.78746663 Ry
     Harris-Foulkes estimate   =     -22.86242914 Ry
     estimated scf accuracy    <       0.14090236 Ry

     iteration #  2     ecut=   100.00 Ry     beta= 0.70
     Davidson diagonalization with overlap
     ethr =  1.76E-03,  avg # of iterations =  2.0

     total cpu time spent up to now is        0.3 secs

     total energy              =     -22.80125955 Ry
     Harris-Foulkes estimate   =     -22.80171807 Ry
     estimated scf accuracy    <       0.00178024 Ry

     iteration #  3     ecut=   100.00 Ry     beta= 0.70
     Davidson diagonalization with overlap
     ethr =  2.23E-05,  avg # of iterations =  2.2

     total cpu time spent up to now is        0.3 secs

     total energy              =     -22.80165334 Ry
     Harris-Foulkes estimate   =     -22.80166528 Ry
     estimated scf accuracy    <       0.00006487 Ry

     iteration #  4     ecut=   100.00 Ry     beta= 0.70
     Davidson diagonalization with overlap
     ethr =  8.11E-07,  avg # of iterations =  2.8

     total cpu time spent up to now is        0.4 secs

     total energy              =     -22.80167339 Ry
     Harris-Foulkes estimate   =     -22.80167462 Ry
     estimated scf accuracy    <       0.00000223 Ry

     iteration #  5     ecut=   100.00 Ry     beta= 0.70
     Davidson diagonalization with overlap
     ethr =  2.79E-08,  avg # of iterations =  2.7

     total cpu time spent up to now is        0.5 secs

     End of self-consistent calculation

          k =-0.1250 0.1250 0.1250 (  1260 PWs)   bands (ev):

    -7.5031  11.2834  13.0804  13.0804

          k =-0.3750 0.3750-0.1250 (  1257 PWs)   bands (ev):

    -5.2028   5.8383   9.2542  11.8509

          k = 0.3750-0.3750 0.6250 (  1237 PWs)   bands (ev):

    -2.0439   0.8789   9.5008  10.0881

          k = 0.1250-0.1250 0.3750 (  1257 PWs)   bands (ev):

    -6.3446   8.5613  10.7523  11.7076

          k =-0.1250 0.6250 0.1250 (  1259 PWs)   bands (ev):

    -4.0696   6.1665   8.3935   8.6951

          k = 0.6250-0.1250 0.8750 (  1240 PWs)   bands (ev):

     0.0140   2.4862   5.0422   7.1229

          k = 0.3750 0.1250 0.6250 (  1249 PWs)   bands (ev):

    -2.9847   3.7355   7.3115   9.5131

          k =-0.1250-0.8750 0.1250 (  1244 PWs)   bands (ev):

    -0.8042   3.0737   6.0932   7.5844

          k =-0.3750 0.3750 0.3750 (  1254 PWs)   bands (ev):

    -4.0878   2.8571  11.1317  11.1317

          k = 0.3750-0.3750 1.1250 (  1245 PWs)   bands (ev):

    -1.0303   1.9127   5.8028   9.3772

     highest occupied level (ev):    13.0804

!    total energy              =     -22.80167422 Ry
     Harris-Foulkes estimate   =     -22.80167422 Ry
     estimated scf accuracy    <       0.00000001 Ry

     The total energy is the sum of the following terms:

     one-electron contribution =       8.33378346 Ry
     hartree contribution      =       1.84397072 Ry
     xc contribution           =      -7.11272271 Ry
     ewald contribution        =     -25.86670569 Ry

     convergence has been achieved in   5 iterations

     Writing output data file diamond.save\

     init_run     :      0.38s CPU      0.10s WALL (       1 calls)
     electrons    :      1.70s CPU      0.30s WALL (       1 calls)

     Called by init_run:
     wfcinit      :      0.34s CPU      0.06s WALL (       1 calls)
     potinit      :      0.00s CPU      0.00s WALL (       1 calls)
     hinit0       :      0.03s CPU      0.03s WALL (       1 calls)

     Called by electrons:
     c_bands      :      1.28s CPU      0.23s WALL (       5 calls)
     sum_band     :      0.34s CPU      0.05s WALL (       5 calls)
     v_of_rho     :      0.00s CPU      0.01s WALL (       6 calls)
     mix_rho      :      0.00s CPU      0.01s WALL (       5 calls)

     Called by c_bands:
     init_us_2    :      0.14s CPU      0.01s WALL (     110 calls)
     cegterg      :      1.28s CPU      0.22s WALL (      50 calls)

     Called by sum_band:

     Called by *egterg:
     h_psi        :      1.28s CPU      0.22s WALL (     177 calls)
     g_psi        :      0.00s CPU      0.01s WALL (     117 calls)
     cdiaghg      :      0.00s CPU      0.01s WALL (     167 calls)

     Called by h_psi:
     h_psi:pot    :      1.20s CPU      0.22s WALL (     177 calls)
     h_psi:calbec :      0.00s CPU      0.01s WALL (     177 calls)
     vloc_psi     :      1.20s CPU      0.21s WALL (     177 calls)
     add_vuspsi   :      0.00s CPU      0.00s WALL (     177 calls)

     General routines
     calbec       :      0.00s CPU      0.01s WALL (     177 calls)
     fft          :      0.00s CPU      0.00s WALL (      17 calls)
     ffts         :      0.00s CPU      0.00s WALL (       5 calls)
     fftw         :      0.64s CPU      0.11s WALL (    1504 calls)

     Parallel routines

     PWSCF        :      2.34s CPU      0.51s WALL


   This run was terminated on:  13:45:29  31Jul2021            

=------------------------------------------------------------------------------=
   JOB DONE.
=------------------------------------------------------------------------------=
