
     Program PWSCF v.6.4.1 starts on 19Jul2021 at 18: 5:53 

     This program is part of the open-source Quantum ESPRESSO suite
     for quantum simulation of materials; please cite
         "P. Giannozzi et al., J. Phys.:Condens. Matter 21 395502 (2009);
         "P. Giannozzi et al., J. Phys.:Condens. Matter 29 465901 (2017);
          URL http://www.quantum-espresso.org", 
     in publications or presentations arising from this work. More details at
     http://www.quantum-espresso.org/quote

     Parallel version (MPI & OpenMP), running on      12 processor cores
     Number of MPI processes:                 1
     Threads/MPI process:                    12

     MPI processes distributed on     1 nodes
     Waiting for input...
     Reading input from standard input
     Message from routine read_cards :
     DEPRECATED: no units specified in CELL_PARAMETERS card

     Current dimensions of program PWSCF are:
     Max number of different atomic species (ntypx) = 10
     Max number of k-points (npk) =  40000
     Max angular momentum in pseudopotentials (lmaxx) =  3

     Subspace diagonalization in iterative solution of the eigenvalue problem:
     a serial algorithm will be used

     Message from routine setup:
     DEPRECATED: symmetry with ibrav=0, use correct ibrav instead

     G-vector sticks info
     --------------------
     sticks:   dense  smooth     PW     G-vecs:    dense   smooth      PW
     Sum         595     595    199                 9841     9841    1807



     bravais-lattice index     =            0
     lattice parameter (alat)  =       6.6641  a.u.
     unit-cell volume          =      73.9136 (a.u.)^3
     number of atoms/cell      =            2
     number of atomic types    =            1
     number of electrons       =         8.00
     number of Kohn-Sham states=            4
     kinetic-energy cutoff     =     100.0000  Ry
     charge density cutoff     =     400.0000  Ry
     convergence threshold     =      1.0E-06
     mixing beta               =       0.7000
     number of iterations used =            8  plain     mixing
     Exchange-correlation      = SLA PZ NOGX NOGC ( 1  1  0  0 0 0)
     nstep                     =           50


     celldm(1)=   6.664070  celldm(2)=   0.000000  celldm(3)=   0.000000
     celldm(4)=   0.000000  celldm(5)=   0.000000  celldm(6)=   0.000000

     crystal axes: (cart. coord. in units of alat)
               a(1) = (  -0.500000   0.000500   0.500000 )  
               a(2) = (   0.000500   0.500000   0.500000 )  
               a(3) = (  -0.499500   0.499500   0.000000 )  

     reciprocal axes: (cart. coord. in units 2 pi/alat)
               b(1) = ( -1.000000 -1.000000  1.001000 )  
               b(2) = (  1.000000  1.000000  0.999000 )  
               b(3) = ( -1.000000  1.002002 -1.001002 )  


     PseudoPot. # 1 for C  read from file:
     ./\C.pz-vbc.UPF
     MD5 check sum: f697e42eaa1e52b77fcf7925dd36a1dd
     Pseudo is Norm-conserving, Zval =  4.0
     Generated by new atomic code, or converted to UPF format
     Using radial grid of  269 points,  1 beta functions with: 
                l(1) =   0

     atomic species   valence    mass     pseudopotential
        C              4.00     1.00000     C ( 1.00)

      2 Sym. Ops., with inversion, found ( 1 have fractional translation)



   Cartesian axes

     site n.     atom                  positions (alat units)
         1           C   tau(   1) = (   0.0000000   0.0000000   0.0000000  )
         2           C   tau(   2) = (  -0.2497500   0.2500000   0.2500000  )

     number of k points=   108

     Number of k-points >= 100: set verbosity='high' to print them.

     Dense  grid:     9841 G-vectors     FFT dimensions: (  32,  32,  32)

     Estimated max dynamical RAM per process >      15.32 MB

     Initial potential from superposition of free atoms

     starting charge    7.99994, renormalised to    8.00000
     Starting wfcs are    8 randomized atomic wfcs

     total cpu time spent up to now is        0.6 secs

     Self-consistent Calculation

     iteration #  1     ecut=   100.00 Ry     beta= 0.70
     Davidson diagonalization with overlap
     ethr =  1.00E-02,  avg # of iterations =  2.0

     total cpu time spent up to now is        1.2 secs

     total energy              =     -22.78739772 Ry
     Harris-Foulkes estimate   =     -22.86256726 Ry
     estimated scf accuracy    <       0.14124403 Ry

     iteration #  2     ecut=   100.00 Ry     beta= 0.70
     Davidson diagonalization with overlap
     ethr =  1.77E-03,  avg # of iterations =  2.0

     total cpu time spent up to now is        1.7 secs

     total energy              =     -22.80120970 Ry
     Harris-Foulkes estimate   =     -22.80167426 Ry
     estimated scf accuracy    <       0.00178624 Ry

     iteration #  3     ecut=   100.00 Ry     beta= 0.70
     Davidson diagonalization with overlap
     ethr =  2.23E-05,  avg # of iterations =  2.1

     total cpu time spent up to now is        2.3 secs

     total energy              =     -22.80162290 Ry
     Harris-Foulkes estimate   =     -22.80163599 Ry
     estimated scf accuracy    <       0.00006766 Ry

     iteration #  4     ecut=   100.00 Ry     beta= 0.70
     Davidson diagonalization with overlap
     ethr =  8.46E-07,  avg # of iterations =  2.5

     total cpu time spent up to now is        2.8 secs

     total energy              =     -22.80164203 Ry
     Harris-Foulkes estimate   =     -22.80164392 Ry
     estimated scf accuracy    <       0.00000279 Ry

     iteration #  5     ecut=   100.00 Ry     beta= 0.70
     Davidson diagonalization with overlap
     ethr =  3.49E-08,  avg # of iterations =  2.4

     total cpu time spent up to now is        3.4 secs

     End of self-consistent calculation

     Number of k-points >= 100: set verbosity='high' to print the bands.

     highest occupied level (ev):    13.4493

!    total energy              =     -22.80164300 Ry
     Harris-Foulkes estimate   =     -22.80164292 Ry
     estimated scf accuracy    <       0.00000001 Ry

     The total energy is the sum of the following terms:

     one-electron contribution =       8.34505788 Ry
     hartree contribution      =       1.84304393 Ry
     xc contribution           =      -7.11441689 Ry
     ewald contribution        =     -25.87532793 Ry

     convergence has been achieved in   5 iterations

     Forces acting on atoms (cartesian axes, Ry/au):

     atom    1 type  1   force =     0.00015575   -0.00030922   -0.00047088
     atom    2 type  1   force =    -0.00015575    0.00030922    0.00047088

     Total force =     0.000827     Total SCF correction =     0.000006

     BFGS Geometry Optimization

     bfgs converged in   1 scf cycles and   0 bfgs steps
     (criteria: energy <  1.0E-04 Ry, force <  1.0E-03 Ry/Bohr)

     End of BFGS Geometry Optimization

     Final energy             =     -22.8016429968 Ry
Begin final coordinates

ATOMIC_POSITIONS (crystal)
C        0.000000000   0.000000000   0.000000000
C        0.250000000   0.250000000   0.250000000
End final coordinates



     Writing output data file diamond.save\

     init_run     :      2.59s CPU      0.52s WALL (       1 calls)
     electrons    :     16.58s CPU      2.85s WALL (       1 calls)
     forces       :      0.19s CPU      0.03s WALL (       1 calls)

     Called by init_run:
     wfcinit      :      2.42s CPU      0.42s WALL (       1 calls)
     potinit      :      0.00s CPU      0.01s WALL (       1 calls)
     hinit0       :      0.17s CPU      0.09s WALL (       1 calls)

     Called by electrons:
     c_bands      :     13.86s CPU      2.39s WALL (       5 calls)
     sum_band     :      2.72s CPU      0.44s WALL (       5 calls)
     v_of_rho     :      0.00s CPU      0.01s WALL (       6 calls)
     mix_rho      :      0.00s CPU      0.01s WALL (       5 calls)

     Called by c_bands:
     init_us_2    :      0.56s CPU      0.06s WALL (    1296 calls)
     cegterg      :     13.25s CPU      2.27s WALL (     540 calls)

     Called by sum_band:

     Called by *egterg:
     h_psi        :     13.55s CPU      2.23s WALL (    1842 calls)
     g_psi        :      0.31s CPU      0.04s WALL (    1194 calls)
     cdiaghg      :      0.28s CPU      0.06s WALL (    1734 calls)

     Called by h_psi:
     h_psi:pot    :     12.97s CPU      2.16s WALL (    1842 calls)
     h_psi:calbec :      0.09s CPU      0.02s WALL (    1842 calls)
     vloc_psi     :     12.69s CPU      2.11s WALL (    1842 calls)
     add_vuspsi   :      0.19s CPU      0.03s WALL (    1842 calls)

     General routines
     calbec       :      0.19s CPU      0.02s WALL (    2274 calls)
     fft          :      0.00s CPU      0.00s WALL (      19 calls)
     ffts         :      0.00s CPU      0.00s WALL (       5 calls)
     fftw         :      6.12s CPU      1.12s WALL (   16096 calls)

     Parallel routines

     PWSCF        :     19.75s CPU      3.79s WALL


   This run was terminated on:  18: 5:57  19Jul2021            

=------------------------------------------------------------------------------=
   JOB DONE.
=------------------------------------------------------------------------------=
