TACC:  Starting up job 3034364 
TACC:  Starting parallel tasks... 

     Program PWSCF v.6.7GPU starts on 30May2021 at 10:52:58 

     This program is part of the open-source Quantum ESPRESSO suite
     for quantum simulation of materials; please cite
         "P. Giannozzi et al., J. Phys.:Condens. Matter 21 395502 (2009);
         "P. Giannozzi et al., J. Phys.:Condens. Matter 29 465901 (2017);
         "P. Giannozzi et al., J. Chem. Phys. 152 154105 (2020);
          URL http://www.quantum-espresso.org", 
     in publications or presentations arising from this work. More details at
     http://www.quantum-espresso.org/quote

     Parallel version (MPI), running on    56 processors

     MPI processes distributed on     1 nodes
     R & G space division:  proc/nbgrp/npool/nimage =      56
     Waiting for input...
     Reading input from standard input

     Current dimensions of program PWSCF are:
     Max number of different atomic species (ntypx) = 10
     Max number of k-points (npk) =  40000
     Max angular momentum in pseudopotentials (lmaxx) =  3

     Atomic positions and unit cell read from directory:
     ./si_333_equil.save/
     Atomic positions from file used, from input discarded
 
     Found symmetry operation: I + (  0.3333  0.0000  0.0000)
     This is a supercell, fractional translations are disabled

     Subspace diagonalization in iterative solution of the eigenvalue problem:
     a serial algorithm will be used

 
     Parallelization info
     --------------------
     sticks:   dense  smooth     PW     G-vecs:    dense   smooth      PW
     Min          46      46     12                 1544     1544     218
     Max          48      48     13                 1547     1547     225
     Sum        2587    2587    703                86547    86547   12339
 
     Using Slab Decomposition
 


     bravais-lattice index     =            2
     lattice parameter (alat)  =      30.6000  a.u.
     unit-cell volume          =    7163.1540 (a.u.)^3
     number of atoms/cell      =           54
     number of atomic types    =            1
     number of electrons       =       216.00
     number of Kohn-Sham states=          135
     kinetic-energy cutoff     =      20.0000  Ry
     charge density cutoff     =      80.0000  Ry
     Exchange-correlation= SLA  PZ   NOGX NOGC
                           (   1   1   0   0   0   0   0)

     celldm(1)=  30.600000  celldm(2)=   0.000000  celldm(3)=   0.000000
     celldm(4)=   0.000000  celldm(5)=   0.000000  celldm(6)=   0.000000

     crystal axes: (cart. coord. in units of alat)
               a(1) = (  -0.500000   0.000000   0.500000 )  
               a(2) = (   0.000000   0.500000   0.500000 )  
               a(3) = (  -0.500000   0.500000   0.000000 )  

     reciprocal axes: (cart. coord. in units 2 pi/alat)
               b(1) = ( -1.000000 -1.000000  1.000000 )  
               b(2) = (  1.000000  1.000000  1.000000 )  
               b(3) = ( -1.000000  1.000000 -1.000000 )  


     PseudoPot. # 1 for Si read from file:
     ./Si.pz-vbc.UPF
     MD5 check sum: 9f25e6ff280f3123e9b3a84715b2e9c9
     Pseudo is Norm-conserving, Zval =  4.0
     Generated by new atomic code, or converted to UPF format
     Using radial grid of  431 points,  2 beta functions with: 
                l(1) =   0
                l(2) =   1

     atomic species   valence    mass     pseudopotential
        Si             4.00    28.08600     Si( 1.00)

     No symmetry found



   Cartesian axes

     site n.     atom                  positions (alat units)
         1           Si  tau(   1) = (   0.0000000   0.0000000   0.0000000  )
         2           Si  tau(   2) = (   0.0833333   0.0833333   0.0833333  )
         3           Si  tau(   3) = (  -0.1666667   0.0000000   0.1666667  )
         4           Si  tau(   4) = (  -0.0833333   0.0833333   0.2500000  )
         5           Si  tau(   5) = (  -0.3333333   0.0000000   0.3333333  )
         6           Si  tau(   6) = (  -0.2500000   0.0833333   0.4166667  )
         7           Si  tau(   7) = (   0.0000000   0.1666667   0.1666667  )
         8           Si  tau(   8) = (   0.0833333   0.2500000   0.2500000  )
         9           Si  tau(   9) = (  -0.1666667   0.1666667   0.3333333  )
        10           Si  tau(  10) = (  -0.0833333   0.2500000   0.4166667  )
        11           Si  tau(  11) = (  -0.3333333   0.1666667   0.5000000  )
        12           Si  tau(  12) = (  -0.2500000   0.2500000   0.5833333  )
        13           Si  tau(  13) = (   0.0000000   0.3333333   0.3333333  )
        14           Si  tau(  14) = (   0.0833333   0.4166667   0.4166667  )
        15           Si  tau(  15) = (  -0.1666667   0.3333333   0.5000000  )
        16           Si  tau(  16) = (  -0.0833333   0.4166667   0.5833333  )
        17           Si  tau(  17) = (  -0.3333333   0.3333333   0.6666667  )
        18           Si  tau(  18) = (  -0.2500000   0.4166667   0.7500000  )
        19           Si  tau(  19) = (  -0.1666667   0.1666667   0.0000000  )
        20           Si  tau(  20) = (  -0.0833333   0.2500000   0.0833333  )
        21           Si  tau(  21) = (  -0.3333333   0.1666667   0.1666667  )
        22           Si  tau(  22) = (  -0.2500000   0.2500000   0.2500000  )
        23           Si  tau(  23) = (  -0.5000000   0.1666667   0.3333333  )
        24           Si  tau(  24) = (  -0.4166667   0.2500000   0.4166667  )
        25           Si  tau(  25) = (  -0.1666667   0.3333333   0.1666667  )
        26           Si  tau(  26) = (  -0.0833333   0.4166667   0.2500000  )
        27           Si  tau(  27) = (  -0.3333333   0.3333333   0.3333333  )
        28           Si  tau(  28) = (  -0.2500000   0.4166667   0.4166667  )
        29           Si  tau(  29) = (  -0.5000000   0.3333333   0.5000000  )
        30           Si  tau(  30) = (  -0.4166667   0.4166667   0.5833333  )
        31           Si  tau(  31) = (  -0.1666667   0.5000000   0.3333333  )
        32           Si  tau(  32) = (  -0.0833333   0.5833333   0.4166667  )
        33           Si  tau(  33) = (  -0.3333333   0.5000000   0.5000000  )
        34           Si  tau(  34) = (  -0.2500000   0.5833333   0.5833333  )
        35           Si  tau(  35) = (  -0.5000000   0.5000000   0.6666667  )
        36           Si  tau(  36) = (  -0.4166667   0.5833333   0.7500000  )
        37           Si  tau(  37) = (  -0.3333333   0.3333333   0.0000000  )
        38           Si  tau(  38) = (  -0.2500000   0.4166667   0.0833333  )
        39           Si  tau(  39) = (  -0.5000000   0.3333333   0.1666667  )
        40           Si  tau(  40) = (  -0.4166667   0.4166667   0.2500000  )
        41           Si  tau(  41) = (  -0.6666667   0.3333333   0.3333333  )
        42           Si  tau(  42) = (  -0.5833333   0.4166667   0.4166667  )
        43           Si  tau(  43) = (  -0.3333333   0.5000000   0.1666667  )
        44           Si  tau(  44) = (  -0.2500000   0.5833333   0.2500000  )
        45           Si  tau(  45) = (  -0.5000000   0.5000000   0.3333333  )
        46           Si  tau(  46) = (  -0.4166667   0.5833333   0.4166667  )
        47           Si  tau(  47) = (  -0.6666667   0.5000000   0.5000000  )
        48           Si  tau(  48) = (  -0.5833333   0.5833333   0.5833333  )
        49           Si  tau(  49) = (  -0.3333333   0.6666667   0.3333333  )
        50           Si  tau(  50) = (  -0.2500000   0.7500000   0.4166667  )
        51           Si  tau(  51) = (  -0.5000000   0.6666667   0.5000000  )
        52           Si  tau(  52) = (  -0.4166667   0.7500000   0.5833333  )
        53           Si  tau(  53) = (  -0.6666667   0.6666667   0.6666667  )
        54           Si  tau(  54) = (  -0.5833333   0.7500000   0.7500000  )

     number of k points=     1
                       cart. coord. in units 2pi/alat
        k(    1) = (  -0.5694770  -0.3372030   0.7227270), wk =   2.0000000

     Dense  grid:    86547 G-vectors     FFT dimensions: (  64,  64,  64)

     Estimated max dynamical RAM per process >       7.21 MB

     Estimated total dynamical RAM >     403.73 MB

     The potential is recalculated from file :
     ./si_333_equil.save/charge-density

     Starting wfcs are  216 randomized atomic wfcs

     Band Structure Calculation
     Davidson diagonalization with overlap

     ethr =  4.63E-11,  avg # of iterations = 68.0

     total cpu time spent up to now is        5.3 secs

     End of band structure calculation

          k =-0.5695-0.3372 0.7227 ( 10822 PWs)   bands (ev):

    -5.4666  -5.3415  -4.8149  -4.8089  -4.5236  -4.3810  -4.1055  -4.1025
    -4.0402  -3.8080  -3.6747  -3.5705  -3.4886  -3.3939  -3.3073  -3.1097
    -2.9363  -2.8233  -2.7866  -2.7552  -2.7302  -2.5006  -2.4819  -2.3787
    -2.3055  -2.2072  -2.0844  -0.8427  -0.8313  -0.7820  -0.6887  -0.6644
    -0.5908  -0.5095  -0.5040  -0.5035  -0.4072  -0.3690  -0.2567  -0.1531
    -0.1338   0.1187   0.1632   0.2234   0.6675   0.8833   1.0105   1.2145
     1.7335   1.8209   1.9933   2.0725   2.0951   2.3140   2.3953   2.4031
     2.4162   2.4894   2.5117   2.5532   2.6121   2.6446   2.6934   2.7654
     2.7940   2.9096   2.9508   3.1455   3.1611   3.1936   3.2709   3.3546
     3.4295   3.4455   3.4480   3.4650   3.5522   3.5696   3.6317   3.6513
     3.7192   3.7216   3.7311   3.8155   3.8536   3.9116   3.9395   4.1087
     4.2905   4.3852   4.3956   4.4140   4.5570   4.6638   4.7124   4.7196
     4.7312   4.7733   4.8224   4.8545   4.8999   4.9586   4.9714   5.1067
     5.2842   5.4699   5.8581   5.8910   7.1004   7.2409   7.5646   7.5692
     7.5825   7.5851   8.0448   8.0988   8.1003   8.1130   8.2504   8.3031
     8.4470   8.5497   8.5678   8.5785   8.7317   8.7967   8.8152   8.8521
     8.8771   8.8948   8.9577   8.9838   9.0107   9.0942   9.1067

     highest occupied, lowest unoccupied level (ev):     5.8910    7.1004

     Writing output data file ./si_333_equil.save/
 
     init_run     :      0.02s CPU      0.35s WALL (       1 calls)
     electrons    :      2.56s CPU      2.74s WALL (       1 calls)

     Called by init_run:
     wfcinit      :      0.00s CPU      0.01s WALL (       1 calls)
     potinit      :      0.01s CPU      0.04s WALL (       1 calls)
     hinit0       :      0.00s CPU      0.12s WALL (       1 calls)

     Called by electrons:
     c_bands      :      2.56s CPU      2.73s WALL (       1 calls)
     v_of_rho     :      0.00s CPU      0.02s WALL (       1 calls)

     Called by c_bands:
     init_us_2    :      0.00s CPU      0.00s WALL (       1 calls)
     cegterg      :      2.46s CPU      2.50s WALL (       4 calls)

     Called by *egterg:
     cdiaghg      :      1.37s CPU      1.40s WALL (      69 calls)
     h_psi        :      0.90s CPU      0.94s WALL (      73 calls)
     g_psi        :      0.00s CPU      0.00s WALL (      68 calls)

     Called by h_psi:
     h_psi:calbec :      0.06s CPU      0.06s WALL (      73 calls)
     vloc_psi     :      0.79s CPU      0.82s WALL (      73 calls)
     add_vuspsi   :      0.04s CPU      0.05s WALL (      73 calls)

     General routines
     calbec       :      0.06s CPU      0.06s WALL (      73 calls)
     fft          :      0.00s CPU      0.08s WALL (       3 calls)
     fftw         :      0.74s CPU      0.77s WALL (    6932 calls)
     davcio       :      0.00s CPU      0.00s WALL (       2 calls)
 
     Parallel routines
 
     PWSCF        :      2.72s CPU      5.67s WALL

 
   This run was terminated on:  10:53: 4  30May2021            

=------------------------------------------------------------------------------=
   JOB DONE.
=------------------------------------------------------------------------------=
TACC:  Shutdown complete. Exiting. 
