TACC:  Starting up job 3034124 
TACC:  Starting parallel tasks... 

     Program PWSCF v.6.7GPU starts on 30May2021 at 10:31:54 

     This program is part of the open-source Quantum ESPRESSO suite
     for quantum simulation of materials; please cite
         "P. Giannozzi et al., J. Phys.:Condens. Matter 21 395502 (2009);
         "P. Giannozzi et al., J. Phys.:Condens. Matter 29 465901 (2017);
         "P. Giannozzi et al., J. Chem. Phys. 152 154105 (2020);
          URL http://www.quantum-espresso.org", 
     in publications or presentations arising from this work. More details at
     http://www.quantum-espresso.org/quote

     Parallel version (MPI), running on     8 processors

     MPI processes distributed on     1 nodes
     R & G space division:  proc/nbgrp/npool/nimage =       8
     Waiting for input...
     Reading input from standard input

     Current dimensions of program PWSCF are:
     Max number of different atomic species (ntypx) = 10
     Max number of k-points (npk) =  40000
     Max angular momentum in pseudopotentials (lmaxx) =  3

     Atomic positions and unit cell read from directory:
     ./si_333_equil.save/
     Atomic positions from file used, from input discarded
 
     Found symmetry operation: I + (  0.3333  0.0000  0.0000)
     This is a supercell, fractional translations are disabled

     Subspace diagonalization in iterative solution of the eigenvalue problem:
     a serial algorithm will be used

 
     Parallelization info
     --------------------
     sticks:   dense  smooth     PW     G-vecs:    dense   smooth      PW
     Min         322     322     83                10818    10818    1413
     Max         324     324     85                10819    10819    1414
     Sum        2587    2587    673                86547    86547   11311
 
     Using Slab Decomposition
 


     bravais-lattice index     =            2
     lattice parameter (alat)  =      30.6000  a.u.
     unit-cell volume          =    7163.1540 (a.u.)^3
     number of atoms/cell      =           54
     number of atomic types    =            1
     number of electrons       =       216.00
     number of Kohn-Sham states=          135
     kinetic-energy cutoff     =      20.0000  Ry
     charge density cutoff     =      80.0000  Ry
     Exchange-correlation= SLA  PZ   NOGX NOGC
                           (   1   1   0   0   0   0   0)

     celldm(1)=  30.600000  celldm(2)=   0.000000  celldm(3)=   0.000000
     celldm(4)=   0.000000  celldm(5)=   0.000000  celldm(6)=   0.000000

     crystal axes: (cart. coord. in units of alat)
               a(1) = (  -0.500000   0.000000   0.500000 )  
               a(2) = (   0.000000   0.500000   0.500000 )  
               a(3) = (  -0.500000   0.500000   0.000000 )  

     reciprocal axes: (cart. coord. in units 2 pi/alat)
               b(1) = ( -1.000000 -1.000000  1.000000 )  
               b(2) = (  1.000000  1.000000  1.000000 )  
               b(3) = ( -1.000000  1.000000 -1.000000 )  


     PseudoPot. # 1 for Si read from file:
     ./Si.pz-vbc.UPF
     MD5 check sum: 9f25e6ff280f3123e9b3a84715b2e9c9
     Pseudo is Norm-conserving, Zval =  4.0
     Generated by new atomic code, or converted to UPF format
     Using radial grid of  431 points,  2 beta functions with: 
                l(1) =   0
                l(2) =   1

     atomic species   valence    mass     pseudopotential
        Si             4.00    28.08600     Si( 1.00)

     No symmetry found



   Cartesian axes

     site n.     atom                  positions (alat units)
         1           Si  tau(   1) = (   0.0000000   0.0000000   0.0000000  )
         2           Si  tau(   2) = (   0.0833333   0.0833333   0.0833333  )
         3           Si  tau(   3) = (  -0.1666667   0.0000000   0.1666667  )
         4           Si  tau(   4) = (  -0.0833333   0.0833333   0.2500000  )
         5           Si  tau(   5) = (  -0.3333333   0.0000000   0.3333333  )
         6           Si  tau(   6) = (  -0.2500000   0.0833333   0.4166667  )
         7           Si  tau(   7) = (   0.0000000   0.1666667   0.1666667  )
         8           Si  tau(   8) = (   0.0833333   0.2500000   0.2500000  )
         9           Si  tau(   9) = (  -0.1666667   0.1666667   0.3333333  )
        10           Si  tau(  10) = (  -0.0833333   0.2500000   0.4166667  )
        11           Si  tau(  11) = (  -0.3333333   0.1666667   0.5000000  )
        12           Si  tau(  12) = (  -0.2500000   0.2500000   0.5833333  )
        13           Si  tau(  13) = (   0.0000000   0.3333333   0.3333333  )
        14           Si  tau(  14) = (   0.0833333   0.4166667   0.4166667  )
        15           Si  tau(  15) = (  -0.1666667   0.3333333   0.5000000  )
        16           Si  tau(  16) = (  -0.0833333   0.4166667   0.5833333  )
        17           Si  tau(  17) = (  -0.3333333   0.3333333   0.6666667  )
        18           Si  tau(  18) = (  -0.2500000   0.4166667   0.7500000  )
        19           Si  tau(  19) = (  -0.1666667   0.1666667   0.0000000  )
        20           Si  tau(  20) = (  -0.0833333   0.2500000   0.0833333  )
        21           Si  tau(  21) = (  -0.3333333   0.1666667   0.1666667  )
        22           Si  tau(  22) = (  -0.2500000   0.2500000   0.2500000  )
        23           Si  tau(  23) = (  -0.5000000   0.1666667   0.3333333  )
        24           Si  tau(  24) = (  -0.4166667   0.2500000   0.4166667  )
        25           Si  tau(  25) = (  -0.1666667   0.3333333   0.1666667  )
        26           Si  tau(  26) = (  -0.0833333   0.4166667   0.2500000  )
        27           Si  tau(  27) = (  -0.3333333   0.3333333   0.3333333  )
        28           Si  tau(  28) = (  -0.2500000   0.4166667   0.4166667  )
        29           Si  tau(  29) = (  -0.5000000   0.3333333   0.5000000  )
        30           Si  tau(  30) = (  -0.4166667   0.4166667   0.5833333  )
        31           Si  tau(  31) = (  -0.1666667   0.5000000   0.3333333  )
        32           Si  tau(  32) = (  -0.0833333   0.5833333   0.4166667  )
        33           Si  tau(  33) = (  -0.3333333   0.5000000   0.5000000  )
        34           Si  tau(  34) = (  -0.2500000   0.5833333   0.5833333  )
        35           Si  tau(  35) = (  -0.5000000   0.5000000   0.6666667  )
        36           Si  tau(  36) = (  -0.4166667   0.5833333   0.7500000  )
        37           Si  tau(  37) = (  -0.3333333   0.3333333   0.0000000  )
        38           Si  tau(  38) = (  -0.2500000   0.4166667   0.0833333  )
        39           Si  tau(  39) = (  -0.5000000   0.3333333   0.1666667  )
        40           Si  tau(  40) = (  -0.4166667   0.4166667   0.2500000  )
        41           Si  tau(  41) = (  -0.6666667   0.3333333   0.3333333  )
        42           Si  tau(  42) = (  -0.5833333   0.4166667   0.4166667  )
        43           Si  tau(  43) = (  -0.3333333   0.5000000   0.1666667  )
        44           Si  tau(  44) = (  -0.2500000   0.5833333   0.2500000  )
        45           Si  tau(  45) = (  -0.5000000   0.5000000   0.3333333  )
        46           Si  tau(  46) = (  -0.4166667   0.5833333   0.4166667  )
        47           Si  tau(  47) = (  -0.6666667   0.5000000   0.5000000  )
        48           Si  tau(  48) = (  -0.5833333   0.5833333   0.5833333  )
        49           Si  tau(  49) = (  -0.3333333   0.6666667   0.3333333  )
        50           Si  tau(  50) = (  -0.2500000   0.7500000   0.4166667  )
        51           Si  tau(  51) = (  -0.5000000   0.6666667   0.5000000  )
        52           Si  tau(  52) = (  -0.4166667   0.7500000   0.5833333  )
        53           Si  tau(  53) = (  -0.6666667   0.6666667   0.6666667  )
        54           Si  tau(  54) = (  -0.5833333   0.7500000   0.7500000  )

     number of k points=     1
                       cart. coord. in units 2pi/alat
        k(    1) = (  -0.0598340   0.0923760   0.2909260), wk =   2.0000000

     Dense  grid:    86547 G-vectors     FFT dimensions: (  64,  64,  64)

     Estimated max dynamical RAM per process >      25.92 MB

     Estimated total dynamical RAM >     207.34 MB

     The potential is recalculated from file :
     ./si_333_equil.save/charge-density

     Starting wfcs are  216 randomized atomic wfcs

     Band Structure Calculation
     Davidson diagonalization with overlap

     ethr =  4.63E-11,  avg # of iterations = 41.0

     total cpu time spent up to now is        3.3 secs

     End of band structure calculation

          k =-0.0598 0.0924 0.2909 ( 10845 PWs)   bands (ev):

    -5.7636  -4.7555  -4.6463  -4.5877  -4.4817  -4.3841  -4.2446  -4.1480
    -4.0975  -4.0103  -4.0084  -3.9493  -3.7243  -3.6630  -3.2864  -2.9294
    -2.8857  -2.7207  -2.6988  -2.6732  -2.5766  -2.5189  -2.4305  -2.2338
    -2.2174  -2.1303  -2.0942  -0.9036  -0.8690  -0.7762  -0.7538  -0.6669
    -0.5994  -0.5558  -0.4641  -0.3456  -0.3128  -0.1666  -0.1165   0.1362
     0.3293   0.3817   0.4368   0.6382   0.9213   1.0101   1.1263   1.3432
     1.3495   1.4473   1.4630   1.6867   1.7528   1.7627   1.7803   1.7812
     1.8088   1.8311   1.8785   1.8795   1.8902   1.9114   1.9294   1.9737
     2.1100   3.5230   3.5263   3.5348   3.5648   3.6467   3.6879   3.6931
     3.7329   3.7343   3.7488   3.7773   3.7775   3.8521   3.8831   4.0192
     4.0198   4.0479   4.0651   4.0753   4.0801   4.1109   4.2328   4.2759
     4.3218   4.7324   4.8358   4.8590   4.8791   4.9349   4.9591   5.0123
     5.0140   5.0844   5.1071   5.1322   5.1391   5.3829   5.3944   5.3997
     5.4755   5.8681   6.0764   6.1469   6.8155   7.1149   7.1390   7.1623
     7.2129   7.2274   7.5667   7.6261   7.6820   7.6916   7.8399   7.8723
     7.8931   7.9407   7.9463   8.0525   8.1861   8.1883   8.1962   8.2012
     8.2416   8.2503   8.2632   8.2708   8.3025   8.3143   8.3670

     highest occupied, lowest unoccupied level (ev):     6.1469    6.8155

     Writing output data file ./si_333_equil.save/
 
     init_run     :      0.04s CPU      0.05s WALL (       1 calls)
     electrons    :      3.05s CPU      3.12s WALL (       1 calls)

     Called by init_run:
     wfcinit      :      0.00s CPU      0.00s WALL (       1 calls)
     potinit      :      0.02s CPU      0.02s WALL (       1 calls)
     hinit0       :      0.01s CPU      0.01s WALL (       1 calls)

     Called by electrons:
     c_bands      :      3.05s CPU      3.12s WALL (       1 calls)
     v_of_rho     :      0.00s CPU      0.00s WALL (       1 calls)

     Called by c_bands:
     init_us_2    :      0.00s CPU      0.00s WALL (       1 calls)
     cegterg      :      2.90s CPU      2.95s WALL (       3 calls)

     Called by *egterg:
     cdiaghg      :      0.92s CPU      0.93s WALL (      42 calls)
     h_psi        :      1.35s CPU      1.39s WALL (      45 calls)
     g_psi        :      0.01s CPU      0.01s WALL (      41 calls)

     Called by h_psi:
     h_psi:calbec :      0.14s CPU      0.14s WALL (      45 calls)
     vloc_psi     :      1.07s CPU      1.09s WALL (      45 calls)
     add_vuspsi   :      0.13s CPU      0.14s WALL (      45 calls)

     General routines
     calbec       :      0.14s CPU      0.14s WALL (      45 calls)
     fft          :      0.00s CPU      0.01s WALL (       3 calls)
     fftw         :      0.91s CPU      0.92s WALL (    6240 calls)
     davcio       :      0.00s CPU      0.01s WALL (       2 calls)
 
     Parallel routines
 
     PWSCF        :      3.18s CPU      3.31s WALL

 
   This run was terminated on:  10:31:57  30May2021            

=------------------------------------------------------------------------------=
   JOB DONE.
=------------------------------------------------------------------------------=
TACC:  Shutdown complete. Exiting. 
