TACC:  Starting up job 3034364 
TACC:  Starting parallel tasks... 

     Program PWSCF v.6.7GPU starts on 30May2021 at 10:59:46 

     This program is part of the open-source Quantum ESPRESSO suite
     for quantum simulation of materials; please cite
         "P. Giannozzi et al., J. Phys.:Condens. Matter 21 395502 (2009);
         "P. Giannozzi et al., J. Phys.:Condens. Matter 29 465901 (2017);
         "P. Giannozzi et al., J. Chem. Phys. 152 154105 (2020);
          URL http://www.quantum-espresso.org", 
     in publications or presentations arising from this work. More details at
     http://www.quantum-espresso.org/quote

     Parallel version (MPI), running on    56 processors

     MPI processes distributed on     1 nodes
     R & G space division:  proc/nbgrp/npool/nimage =      56
     Waiting for input...
     Reading input from standard input

     Current dimensions of program PWSCF are:
     Max number of different atomic species (ntypx) = 10
     Max number of k-points (npk) =  40000
     Max angular momentum in pseudopotentials (lmaxx) =  3

     Atomic positions and unit cell read from directory:
     ./si_333_equil.save/
     Atomic positions from file used, from input discarded
 
     Found symmetry operation: I + (  0.3333  0.0000  0.0000)
     This is a supercell, fractional translations are disabled

     Subspace diagonalization in iterative solution of the eigenvalue problem:
     a serial algorithm will be used

 
     Parallelization info
     --------------------
     sticks:   dense  smooth     PW     G-vecs:    dense   smooth      PW
     Min          46      46     12                 1544     1544     223
     Max          48      48     13                 1547     1547     229
     Sum        2587    2587    721                86547    86547   12627
 
     Using Slab Decomposition
 


     bravais-lattice index     =            2
     lattice parameter (alat)  =      30.6000  a.u.
     unit-cell volume          =    7163.1540 (a.u.)^3
     number of atoms/cell      =           54
     number of atomic types    =            1
     number of electrons       =       216.00
     number of Kohn-Sham states=          135
     kinetic-energy cutoff     =      20.0000  Ry
     charge density cutoff     =      80.0000  Ry
     Exchange-correlation= SLA  PZ   NOGX NOGC
                           (   1   1   0   0   0   0   0)

     celldm(1)=  30.600000  celldm(2)=   0.000000  celldm(3)=   0.000000
     celldm(4)=   0.000000  celldm(5)=   0.000000  celldm(6)=   0.000000

     crystal axes: (cart. coord. in units of alat)
               a(1) = (  -0.500000   0.000000   0.500000 )  
               a(2) = (   0.000000   0.500000   0.500000 )  
               a(3) = (  -0.500000   0.500000   0.000000 )  

     reciprocal axes: (cart. coord. in units 2 pi/alat)
               b(1) = ( -1.000000 -1.000000  1.000000 )  
               b(2) = (  1.000000  1.000000  1.000000 )  
               b(3) = ( -1.000000  1.000000 -1.000000 )  


     PseudoPot. # 1 for Si read from file:
     ./Si.pz-vbc.UPF
     MD5 check sum: 9f25e6ff280f3123e9b3a84715b2e9c9
     Pseudo is Norm-conserving, Zval =  4.0
     Generated by new atomic code, or converted to UPF format
     Using radial grid of  431 points,  2 beta functions with: 
                l(1) =   0
                l(2) =   1

     atomic species   valence    mass     pseudopotential
        Si             4.00    28.08600     Si( 1.00)

     No symmetry found



   Cartesian axes

     site n.     atom                  positions (alat units)
         1           Si  tau(   1) = (   0.0000000   0.0000000   0.0000000  )
         2           Si  tau(   2) = (   0.0833333   0.0833333   0.0833333  )
         3           Si  tau(   3) = (  -0.1666667   0.0000000   0.1666667  )
         4           Si  tau(   4) = (  -0.0833333   0.0833333   0.2500000  )
         5           Si  tau(   5) = (  -0.3333333   0.0000000   0.3333333  )
         6           Si  tau(   6) = (  -0.2500000   0.0833333   0.4166667  )
         7           Si  tau(   7) = (   0.0000000   0.1666667   0.1666667  )
         8           Si  tau(   8) = (   0.0833333   0.2500000   0.2500000  )
         9           Si  tau(   9) = (  -0.1666667   0.1666667   0.3333333  )
        10           Si  tau(  10) = (  -0.0833333   0.2500000   0.4166667  )
        11           Si  tau(  11) = (  -0.3333333   0.1666667   0.5000000  )
        12           Si  tau(  12) = (  -0.2500000   0.2500000   0.5833333  )
        13           Si  tau(  13) = (   0.0000000   0.3333333   0.3333333  )
        14           Si  tau(  14) = (   0.0833333   0.4166667   0.4166667  )
        15           Si  tau(  15) = (  -0.1666667   0.3333333   0.5000000  )
        16           Si  tau(  16) = (  -0.0833333   0.4166667   0.5833333  )
        17           Si  tau(  17) = (  -0.3333333   0.3333333   0.6666667  )
        18           Si  tau(  18) = (  -0.2500000   0.4166667   0.7500000  )
        19           Si  tau(  19) = (  -0.1666667   0.1666667   0.0000000  )
        20           Si  tau(  20) = (  -0.0833333   0.2500000   0.0833333  )
        21           Si  tau(  21) = (  -0.3333333   0.1666667   0.1666667  )
        22           Si  tau(  22) = (  -0.2500000   0.2500000   0.2500000  )
        23           Si  tau(  23) = (  -0.5000000   0.1666667   0.3333333  )
        24           Si  tau(  24) = (  -0.4166667   0.2500000   0.4166667  )
        25           Si  tau(  25) = (  -0.1666667   0.3333333   0.1666667  )
        26           Si  tau(  26) = (  -0.0833333   0.4166667   0.2500000  )
        27           Si  tau(  27) = (  -0.3333333   0.3333333   0.3333333  )
        28           Si  tau(  28) = (  -0.2500000   0.4166667   0.4166667  )
        29           Si  tau(  29) = (  -0.5000000   0.3333333   0.5000000  )
        30           Si  tau(  30) = (  -0.4166667   0.4166667   0.5833333  )
        31           Si  tau(  31) = (  -0.1666667   0.5000000   0.3333333  )
        32           Si  tau(  32) = (  -0.0833333   0.5833333   0.4166667  )
        33           Si  tau(  33) = (  -0.3333333   0.5000000   0.5000000  )
        34           Si  tau(  34) = (  -0.2500000   0.5833333   0.5833333  )
        35           Si  tau(  35) = (  -0.5000000   0.5000000   0.6666667  )
        36           Si  tau(  36) = (  -0.4166667   0.5833333   0.7500000  )
        37           Si  tau(  37) = (  -0.3333333   0.3333333   0.0000000  )
        38           Si  tau(  38) = (  -0.2500000   0.4166667   0.0833333  )
        39           Si  tau(  39) = (  -0.5000000   0.3333333   0.1666667  )
        40           Si  tau(  40) = (  -0.4166667   0.4166667   0.2500000  )
        41           Si  tau(  41) = (  -0.6666667   0.3333333   0.3333333  )
        42           Si  tau(  42) = (  -0.5833333   0.4166667   0.4166667  )
        43           Si  tau(  43) = (  -0.3333333   0.5000000   0.1666667  )
        44           Si  tau(  44) = (  -0.2500000   0.5833333   0.2500000  )
        45           Si  tau(  45) = (  -0.5000000   0.5000000   0.3333333  )
        46           Si  tau(  46) = (  -0.4166667   0.5833333   0.4166667  )
        47           Si  tau(  47) = (  -0.6666667   0.5000000   0.5000000  )
        48           Si  tau(  48) = (  -0.5833333   0.5833333   0.5833333  )
        49           Si  tau(  49) = (  -0.3333333   0.6666667   0.3333333  )
        50           Si  tau(  50) = (  -0.2500000   0.7500000   0.4166667  )
        51           Si  tau(  51) = (  -0.5000000   0.6666667   0.5000000  )
        52           Si  tau(  52) = (  -0.4166667   0.7500000   0.5833333  )
        53           Si  tau(  53) = (  -0.6666667   0.6666667   0.6666667  )
        54           Si  tau(  54) = (  -0.5833333   0.7500000   0.7500000  )

     number of k points=     1
                       cart. coord. in units 2pi/alat
        k(    1) = (   0.6170350   0.6983310   0.6299210), wk =   2.0000000

     Dense  grid:    86547 G-vectors     FFT dimensions: (  64,  64,  64)

     Estimated max dynamical RAM per process >       7.21 MB

     Estimated total dynamical RAM >     403.73 MB

     The potential is recalculated from file :
     ./si_333_equil.save/charge-density

     Starting wfcs are  216 randomized atomic wfcs

     Band Structure Calculation
     Davidson diagonalization with overlap

     ethr =  4.63E-11,  avg # of iterations = 74.0

     total cpu time spent up to now is        3.0 secs

     End of band structure calculation

          k = 0.6170 0.6983 0.6299 ( 10812 PWs)   bands (ev):

    -5.6260  -5.1961  -4.6272  -4.5025  -4.4792  -4.4358  -4.4118  -4.2840
    -3.9930  -3.9729  -3.8705  -3.5548  -3.3988  -3.3083  -3.2926  -3.1690
    -3.0396  -3.0151  -2.5515  -2.5505  -2.4534  -2.4304  -2.4300  -2.4082
    -2.3960  -2.3718  -2.2434  -0.7879  -0.6668  -0.6458  -0.6450  -0.6366
    -0.6265  -0.6199  -0.6097  -0.5753  -0.5669  -0.0402  -0.0087   0.0516
     0.0824   0.1630   0.1916   0.2404   0.4079   0.4495   1.4289   1.4757
     1.7275   1.7283   1.9676   1.9836   1.9903   2.0142   2.0342   2.0517
     2.0849   2.0959   2.1319   2.1360   2.1394   2.4500   2.5106   2.5235
     2.9173   2.9640   2.9764   2.9806   3.4733   3.4915   3.5434   3.5741
     3.5873   3.5951   3.6566   3.6621   3.6693   3.6793   3.7213   3.7348
     3.8202   3.8370   3.8499   3.9251   3.9440   3.9750   4.1765   4.2481
     4.2576   4.5462   4.5517   4.6477   4.6527   4.7082   4.7445   4.7471
     4.7750   4.7855   4.7907   5.0197   5.0589   5.1120   5.1449   5.1568
     5.5415   5.6409   5.9236   6.0347   7.1413   7.1597   7.2244   7.2879
     7.3705   7.3791   7.7233   7.7297   7.7335   7.8533   8.1922   8.2350
     8.4356   8.4469   8.4483   8.4633   8.4795   8.5337   8.5435   8.5643
     8.6548   8.7119   8.7280   8.7339   8.7436   8.8123   8.8190

     highest occupied, lowest unoccupied level (ev):     6.0347    7.1413

     Writing output data file ./si_333_equil.save/
 
     init_run     :      0.12s CPU      0.15s WALL (       1 calls)
     electrons    :      2.68s CPU      2.73s WALL (       1 calls)

     Called by init_run:
     wfcinit      :      0.00s CPU      0.01s WALL (       1 calls)
     potinit      :      0.10s CPU      0.11s WALL (       1 calls)
     hinit0       :      0.00s CPU      0.02s WALL (       1 calls)

     Called by electrons:
     c_bands      :      2.68s CPU      2.73s WALL (       1 calls)
     v_of_rho     :      0.00s CPU      0.00s WALL (       1 calls)

     Called by c_bands:
     init_us_2    :      0.00s CPU      0.00s WALL (       1 calls)
     cegterg      :      2.58s CPU      2.61s WALL (       4 calls)

     Called by *egterg:
     cdiaghg      :      1.46s CPU      1.47s WALL (      75 calls)
     h_psi        :      0.91s CPU      0.94s WALL (      79 calls)
     g_psi        :      0.00s CPU      0.00s WALL (      74 calls)

     Called by h_psi:
     h_psi:calbec :      0.06s CPU      0.06s WALL (      79 calls)
     vloc_psi     :      0.81s CPU      0.84s WALL (      79 calls)
     add_vuspsi   :      0.04s CPU      0.04s WALL (      79 calls)

     General routines
     calbec       :      0.06s CPU      0.06s WALL (      79 calls)
     fft          :      0.00s CPU      0.02s WALL (       3 calls)
     fftw         :      0.76s CPU      0.78s WALL (    7058 calls)
     davcio       :      0.00s CPU      0.00s WALL (       2 calls)
 
     Parallel routines
 
     PWSCF        :      2.92s CPU      3.30s WALL

 
   This run was terminated on:  10:59:49  30May2021            

=------------------------------------------------------------------------------=
   JOB DONE.
=------------------------------------------------------------------------------=
TACC:  Shutdown complete. Exiting. 
