ANIMSTEPS   6
CRYSTAL
PRIMVEC
   10.583544172    0.000000000    0.000000000
    0.000000000   10.583544172    0.000000000
    0.000000000    0.000000000   10.583544172
PRIMCOORD  1
      2   1
   Cl     0.00000   0.00000   0.00000   0.07071   0.00000   0.00000
   Cl     1.97119   0.00000   0.00000   0.07071   0.00000   0.00000
PRIMCOORD  2
      2   1
   Cl     0.00000   0.00000   0.00000   0.00000   0.09239   0.00000
   Cl     1.97119   0.00000   0.00000   0.00000  -0.03827   0.00000
PRIMCOORD  3
      2   1
   Cl     0.00000   0.00000   0.00000   0.00000   0.00000   0.09239
   Cl     1.97119   0.00000   0.00000   0.00000  -0.00000  -0.03827
PRIMCOORD  4
      2   1
   Cl     0.00000   0.00000   0.00000   0.00000   0.03827   0.00000
   Cl     1.97119   0.00000   0.00000   0.00000   0.09239   0.00000
PRIMCOORD  5
      2   1
   Cl     0.00000   0.00000   0.00000   0.00000   0.00000  -0.03827
   Cl     1.97119   0.00000   0.00000   0.00000   0.00000  -0.09239
PRIMCOORD  6
      2   1
   Cl     0.00000   0.00000   0.00000   0.07071   0.00000   0.00000
   Cl     1.97119   0.00000   0.00000  -0.07071   0.00000   0.00000
