[Molden Format]
[FREQ]
    0.00
    0.00
    0.00
    0.00
    0.00
  554.27
[FR-COORD]
   Cl          0.00000        0.00000        0.00000
   Cl          3.72500        0.00000        0.00000
[FR-NORM-COORD]
 vibration     1
   0.70711   0.00000   0.00000
   0.70711   0.00000   0.00000
 vibration     2
   0.00000   0.92388   0.00000
   0.00000  -0.38268   0.00000
 vibration     3
   0.00000   0.00000   0.92388
   0.00000  -0.00000  -0.38268
 vibration     4
   0.00000   0.38268   0.00000
   0.00000   0.92388   0.00000
 vibration     5
   0.00000   0.00000  -0.38268
   0.00000   0.00000  -0.92388
 vibration     6
   0.70711   0.00000   0.00000
  -0.70711   0.00000   0.00000
