TACC:  Starting up job 3034374 
TACC:  Starting parallel tasks... 

     Program PWSCF v.6.7GPU starts on 30May2021 at 11:46:18 

     This program is part of the open-source Quantum ESPRESSO suite
     for quantum simulation of materials; please cite
         "P. Giannozzi et al., J. Phys.:Condens. Matter 21 395502 (2009);
         "P. Giannozzi et al., J. Phys.:Condens. Matter 29 465901 (2017);
         "P. Giannozzi et al., J. Chem. Phys. 152 154105 (2020);
          URL http://www.quantum-espresso.org", 
     in publications or presentations arising from this work. More details at
     http://www.quantum-espresso.org/quote

     Parallel version (MPI), running on    56 processors

     MPI processes distributed on     1 nodes
     R & G space division:  proc/nbgrp/npool/nimage =      56
     Waiting for input...
     Reading input from standard input

     Current dimensions of program PWSCF are:
     Max number of different atomic species (ntypx) = 10
     Max number of k-points (npk) =  40000
     Max angular momentum in pseudopotentials (lmaxx) =  3

     Atomic positions and unit cell read from directory:
     ./si_333_ZG.save/
     Atomic positions from file used, from input discarded
 

     Subspace diagonalization in iterative solution of the eigenvalue problem:
     a serial algorithm will be used

 
     Parallelization info
     --------------------
     sticks:   dense  smooth     PW     G-vecs:    dense   smooth      PW
     Min          46      46     13                 1544     1544     229
     Max          48      48     14                 1547     1547     232
     Sum        2587    2587    733                86547    86547   12939
 
     Using Slab Decomposition
 


     bravais-lattice index     =            2
     lattice parameter (alat)  =      30.6000  a.u.
     unit-cell volume          =    7163.1540 (a.u.)^3
     number of atoms/cell      =           54
     number of atomic types    =            1
     number of electrons       =       216.00
     number of Kohn-Sham states=          135
     kinetic-energy cutoff     =      20.0000  Ry
     charge density cutoff     =      80.0000  Ry
     Exchange-correlation= SLA  PZ   NOGX NOGC
                           (   1   1   0   0   0   0   0)

     celldm(1)=  30.600000  celldm(2)=   0.000000  celldm(3)=   0.000000
     celldm(4)=   0.000000  celldm(5)=   0.000000  celldm(6)=   0.000000

     crystal axes: (cart. coord. in units of alat)
               a(1) = (  -0.500000   0.000000   0.500000 )  
               a(2) = (   0.000000   0.500000   0.500000 )  
               a(3) = (  -0.500000   0.500000   0.000000 )  

     reciprocal axes: (cart. coord. in units 2 pi/alat)
               b(1) = ( -1.000000 -1.000000  1.000000 )  
               b(2) = (  1.000000  1.000000  1.000000 )  
               b(3) = ( -1.000000  1.000000 -1.000000 )  


     PseudoPot. # 1 for Si read from file:
     ./Si.pz-vbc.UPF
     MD5 check sum: 9f25e6ff280f3123e9b3a84715b2e9c9
     Pseudo is Norm-conserving, Zval =  4.0
     Generated by new atomic code, or converted to UPF format
     Using radial grid of  431 points,  2 beta functions with: 
                l(1) =   0
                l(2) =   1

     atomic species   valence    mass     pseudopotential
        Si             4.00    28.08600     Si( 1.00)

     No symmetry found



   Cartesian axes

     site n.     atom                  positions (alat units)
         1           Si  tau(   1) = (   0.0046104  -0.0012521   0.0007309  )
         2           Si  tau(   2) = (   0.0823387   0.0859342   0.0831619  )
         3           Si  tau(   3) = (  -0.1611350   0.0017335   0.1664866  )
         4           Si  tau(   4) = (  -0.0820274   0.0835288   0.2506426  )
         5           Si  tau(   5) = (  -0.3363676   0.0026941   0.3327901  )
         6           Si  tau(   6) = (  -0.2438717   0.0873976   0.4077950  )
         7           Si  tau(   7) = (   0.0011966   0.1628910   0.1702415  )
         8           Si  tau(   8) = (   0.0867880   0.2500323   0.2532154  )
         9           Si  tau(   9) = (  -0.1659707   0.1675269   0.3284672  )
        10           Si  tau(  10) = (  -0.0834937   0.2478489   0.4150943  )
        11           Si  tau(  11) = (  -0.3383767   0.1640648   0.4982939  )
        12           Si  tau(  12) = (  -0.2543653   0.2480075   0.5818687  )
        13           Si  tau(  13) = (   0.0018640   0.3342819   0.3318517  )
        14           Si  tau(  14) = (   0.0823904   0.4138368   0.4154394  )
        15           Si  tau(  15) = (  -0.1629263   0.3307274   0.4974290  )
        16           Si  tau(  16) = (  -0.0818367   0.4171001   0.5858529  )
        17           Si  tau(  17) = (  -0.3346096   0.3354340   0.6622633  )
        18           Si  tau(  18) = (  -0.2508309   0.4191034   0.7523870  )
        19           Si  tau(  19) = (  -0.1688613   0.1683512   0.0022269  )
        20           Si  tau(  20) = (  -0.0835180   0.2427546   0.0835896  )
        21           Si  tau(  21) = (  -0.3351470   0.1701973   0.1713379  )
        22           Si  tau(  22) = (  -0.2512438   0.2553049   0.2474367  )
        23           Si  tau(  23) = (  -0.5054607   0.1601676   0.3359778  )
        24           Si  tau(  24) = (  -0.4185308   0.2472476   0.4151632  )
        25           Si  tau(  25) = (  -0.1674321   0.3306952   0.1676580  )
        26           Si  tau(  26) = (  -0.0833086   0.4194624   0.2526917  )
        27           Si  tau(  27) = (  -0.3266477   0.3354499   0.3345063  )
        28           Si  tau(  28) = (  -0.2462607   0.4128151   0.4207368  )
        29           Si  tau(  29) = (  -0.4981255   0.3327949   0.5012928  )
        30           Si  tau(  30) = (  -0.4213878   0.4190288   0.5844952  )
        31           Si  tau(  31) = (  -0.1678541   0.4969582   0.3357464  )
        32           Si  tau(  32) = (  -0.0872478   0.5792313   0.4182823  )
        33           Si  tau(  33) = (  -0.3339872   0.5020319   0.5003662  )
        34           Si  tau(  34) = (  -0.2511717   0.5857638   0.5877651  )
        35           Si  tau(  35) = (  -0.4993409   0.4971192   0.6666240  )
        36           Si  tau(  36) = (  -0.4209718   0.5867492   0.7535777  )
        37           Si  tau(  37) = (  -0.3365955   0.3324941   0.0009689  )
        38           Si  tau(  38) = (  -0.2453884   0.4122297   0.0817308  )
        39           Si  tau(  39) = (  -0.4984887   0.3325313   0.1727302  )
        40           Si  tau(  40) = (  -0.4152671   0.4184436   0.2507736  )
        41           Si  tau(  41) = (  -0.6638304   0.3367444   0.3356733  )
        42           Si  tau(  42) = (  -0.5799677   0.4171491   0.4188155  )
        43           Si  tau(  43) = (  -0.3331754   0.5016543   0.1603804  )
        44           Si  tau(  44) = (  -0.2496271   0.5823015   0.2440473  )
        45           Si  tau(  45) = (  -0.5034450   0.5078440   0.3362446  )
        46           Si  tau(  46) = (  -0.4118378   0.5829187   0.4158818  )
        47           Si  tau(  47) = (  -0.6692551   0.4957102   0.4963772  )
        48           Si  tau(  48) = (  -0.5855578   0.5857955   0.5805227  )
        49           Si  tau(  49) = (  -0.3314853   0.6664424   0.3346640  )
        50           Si  tau(  50) = (  -0.2477569   0.7523061   0.4129408  )
        51           Si  tau(  51) = (  -0.5021619   0.6670397   0.4962550  )
        52           Si  tau(  52) = (  -0.4209771   0.7496676   0.5841296  )
        53           Si  tau(  53) = (  -0.6669913   0.6676729   0.6624158  )
        54           Si  tau(  54) = (  -0.5850704   0.7480409   0.7519623  )

     number of k points=     1
                       cart. coord. in units 2pi/alat
        k(    1) = (   0.4646150   0.9302250   0.8404570), wk =   2.0000000

     Dense  grid:    86547 G-vectors     FFT dimensions: (  64,  64,  64)

     Estimated max dynamical RAM per process >       7.21 MB

     Estimated total dynamical RAM >     403.73 MB

     The potential is recalculated from file :
     ./si_333_ZG.save/charge-density

     Starting wfcs are  216 randomized atomic wfcs

     Band Structure Calculation
     Davidson diagonalization with overlap

     ethr =  4.63E-11,  avg # of iterations = 76.0

     total cpu time spent up to now is        3.1 secs

     End of band structure calculation

          k = 0.4646 0.9302 0.8405 ( 10824 PWs)   bands (ev):

    -5.6821  -4.9934  -4.8588  -4.7678  -4.6682  -4.5383  -4.1045  -4.0237
    -3.9280  -3.8917  -3.8019  -3.7002  -3.6114  -3.4687  -3.3180  -3.1739
    -2.9933  -2.8739  -2.8280  -2.7935  -2.7075  -2.6687  -2.6180  -2.0572
    -2.0009  -1.9735  -1.8520  -1.1410  -1.0197  -0.9749  -0.9336  -0.6150
    -0.5952  -0.5804  -0.5395  -0.3537  -0.2713  -0.2017  -0.0928  -0.0412
     0.1058   0.1924   0.2761   0.4112   0.6353   0.8390   1.1731   1.4057
     1.4854   1.6823   1.8401   1.8902   1.9365   1.9611   1.9913   2.0490
     2.0837   2.1256   2.1663   2.2358   2.2964   2.3475   2.4136   2.4890
     2.8079   3.1209   3.1674   3.2210   3.2918   3.3210   3.3768   3.3899
     3.4271   3.4342   3.4891   3.5883   3.7232   3.7787   3.8921   3.9491
     4.0005   4.0237   4.0630   4.1213   4.1813   4.2454   4.2681   4.3000
     4.3465   4.3693   4.4055   4.4337   4.4724   4.5058   4.5911   4.6891
     4.7428   4.8043   4.8574   4.9524   4.9847   5.2639   5.4150   5.4555
     5.5802   5.6724   5.7940   5.9551   6.8021   7.3272   7.4139   7.4792
     7.5942   7.6084   7.6910   7.7242   7.7741   7.8273   7.9357   8.0634
     8.0988   8.1988   8.2425   8.4029   8.4293   8.4804   8.4944   8.5314
     8.5759   8.6436   8.6784   8.7126   8.7540   8.7956   8.8371

     highest occupied, lowest unoccupied level (ev):     5.9551    6.8021

     Writing output data file ./si_333_ZG.save/
 
     init_run     :      0.02s CPU      0.12s WALL (       1 calls)
     electrons    :      2.82s CPU      2.87s WALL (       1 calls)

     Called by init_run:
     wfcinit      :      0.00s CPU      0.01s WALL (       1 calls)
     potinit      :      0.00s CPU      0.01s WALL (       1 calls)
     hinit0       :      0.01s CPU      0.09s WALL (       1 calls)

     Called by electrons:
     c_bands      :      2.82s CPU      2.87s WALL (       1 calls)
     v_of_rho     :      0.00s CPU      0.00s WALL (       1 calls)

     Called by c_bands:
     init_us_2    :      0.00s CPU      0.00s WALL (       1 calls)
     cegterg      :      2.72s CPU      2.75s WALL (       4 calls)

     Called by *egterg:
     cdiaghg      :      1.55s CPU      1.56s WALL (      77 calls)
     h_psi        :      0.95s CPU      0.99s WALL (      81 calls)
     g_psi        :      0.00s CPU      0.00s WALL (      76 calls)

     Called by h_psi:
     h_psi:calbec :      0.07s CPU      0.07s WALL (      81 calls)
     vloc_psi     :      0.84s CPU      0.87s WALL (      81 calls)
     add_vuspsi   :      0.04s CPU      0.05s WALL (      81 calls)

     General routines
     calbec       :      0.07s CPU      0.07s WALL (      81 calls)
     fft          :      0.00s CPU      0.09s WALL (       3 calls)
     fftw         :      0.79s CPU      0.81s WALL (    7280 calls)
     davcio       :      0.00s CPU      0.00s WALL (       2 calls)
 
     Parallel routines
 
     PWSCF        :      2.99s CPU      3.25s WALL

 
   This run was terminated on:  11:46:21  30May2021            

=------------------------------------------------------------------------------=
   JOB DONE.
=------------------------------------------------------------------------------=
TACC:  Shutdown complete. Exiting. 
