TACC:  Starting up job 3034364 
TACC:  Starting parallel tasks... 

     Program PWSCF v.6.7GPU starts on 30May2021 at 11:20:42 

     This program is part of the open-source Quantum ESPRESSO suite
     for quantum simulation of materials; please cite
         "P. Giannozzi et al., J. Phys.:Condens. Matter 21 395502 (2009);
         "P. Giannozzi et al., J. Phys.:Condens. Matter 29 465901 (2017);
         "P. Giannozzi et al., J. Chem. Phys. 152 154105 (2020);
          URL http://www.quantum-espresso.org", 
     in publications or presentations arising from this work. More details at
     http://www.quantum-espresso.org/quote

     Parallel version (MPI), running on    56 processors

     MPI processes distributed on     1 nodes
     R & G space division:  proc/nbgrp/npool/nimage =      56
     Waiting for input...
     Reading input from standard input

     Current dimensions of program PWSCF are:
     Max number of different atomic species (ntypx) = 10
     Max number of k-points (npk) =  40000
     Max angular momentum in pseudopotentials (lmaxx) =  3

     Atomic positions and unit cell read from directory:
     ./si_333_equil.save/
     Atomic positions from file used, from input discarded
 
     Found symmetry operation: I + (  0.3333  0.0000  0.0000)
     This is a supercell, fractional translations are disabled

     Subspace diagonalization in iterative solution of the eigenvalue problem:
     a serial algorithm will be used

 
     Parallelization info
     --------------------
     sticks:   dense  smooth     PW     G-vecs:    dense   smooth      PW
     Min          46      46     13                 1544     1544     236
     Max          48      48     14                 1547     1547     240
     Sum        2587    2587    745                86547    86547   13323
 
     Using Slab Decomposition
 


     bravais-lattice index     =            2
     lattice parameter (alat)  =      30.6000  a.u.
     unit-cell volume          =    7163.1540 (a.u.)^3
     number of atoms/cell      =           54
     number of atomic types    =            1
     number of electrons       =       216.00
     number of Kohn-Sham states=          135
     kinetic-energy cutoff     =      20.0000  Ry
     charge density cutoff     =      80.0000  Ry
     Exchange-correlation= SLA  PZ   NOGX NOGC
                           (   1   1   0   0   0   0   0)

     celldm(1)=  30.600000  celldm(2)=   0.000000  celldm(3)=   0.000000
     celldm(4)=   0.000000  celldm(5)=   0.000000  celldm(6)=   0.000000

     crystal axes: (cart. coord. in units of alat)
               a(1) = (  -0.500000   0.000000   0.500000 )  
               a(2) = (   0.000000   0.500000   0.500000 )  
               a(3) = (  -0.500000   0.500000   0.000000 )  

     reciprocal axes: (cart. coord. in units 2 pi/alat)
               b(1) = ( -1.000000 -1.000000  1.000000 )  
               b(2) = (  1.000000  1.000000  1.000000 )  
               b(3) = ( -1.000000  1.000000 -1.000000 )  


     PseudoPot. # 1 for Si read from file:
     ./Si.pz-vbc.UPF
     MD5 check sum: 9f25e6ff280f3123e9b3a84715b2e9c9
     Pseudo is Norm-conserving, Zval =  4.0
     Generated by new atomic code, or converted to UPF format
     Using radial grid of  431 points,  2 beta functions with: 
                l(1) =   0
                l(2) =   1

     atomic species   valence    mass     pseudopotential
        Si             4.00    28.08600     Si( 1.00)

     No symmetry found



   Cartesian axes

     site n.     atom                  positions (alat units)
         1           Si  tau(   1) = (   0.0000000   0.0000000   0.0000000  )
         2           Si  tau(   2) = (   0.0833333   0.0833333   0.0833333  )
         3           Si  tau(   3) = (  -0.1666667   0.0000000   0.1666667  )
         4           Si  tau(   4) = (  -0.0833333   0.0833333   0.2500000  )
         5           Si  tau(   5) = (  -0.3333333   0.0000000   0.3333333  )
         6           Si  tau(   6) = (  -0.2500000   0.0833333   0.4166667  )
         7           Si  tau(   7) = (   0.0000000   0.1666667   0.1666667  )
         8           Si  tau(   8) = (   0.0833333   0.2500000   0.2500000  )
         9           Si  tau(   9) = (  -0.1666667   0.1666667   0.3333333  )
        10           Si  tau(  10) = (  -0.0833333   0.2500000   0.4166667  )
        11           Si  tau(  11) = (  -0.3333333   0.1666667   0.5000000  )
        12           Si  tau(  12) = (  -0.2500000   0.2500000   0.5833333  )
        13           Si  tau(  13) = (   0.0000000   0.3333333   0.3333333  )
        14           Si  tau(  14) = (   0.0833333   0.4166667   0.4166667  )
        15           Si  tau(  15) = (  -0.1666667   0.3333333   0.5000000  )
        16           Si  tau(  16) = (  -0.0833333   0.4166667   0.5833333  )
        17           Si  tau(  17) = (  -0.3333333   0.3333333   0.6666667  )
        18           Si  tau(  18) = (  -0.2500000   0.4166667   0.7500000  )
        19           Si  tau(  19) = (  -0.1666667   0.1666667   0.0000000  )
        20           Si  tau(  20) = (  -0.0833333   0.2500000   0.0833333  )
        21           Si  tau(  21) = (  -0.3333333   0.1666667   0.1666667  )
        22           Si  tau(  22) = (  -0.2500000   0.2500000   0.2500000  )
        23           Si  tau(  23) = (  -0.5000000   0.1666667   0.3333333  )
        24           Si  tau(  24) = (  -0.4166667   0.2500000   0.4166667  )
        25           Si  tau(  25) = (  -0.1666667   0.3333333   0.1666667  )
        26           Si  tau(  26) = (  -0.0833333   0.4166667   0.2500000  )
        27           Si  tau(  27) = (  -0.3333333   0.3333333   0.3333333  )
        28           Si  tau(  28) = (  -0.2500000   0.4166667   0.4166667  )
        29           Si  tau(  29) = (  -0.5000000   0.3333333   0.5000000  )
        30           Si  tau(  30) = (  -0.4166667   0.4166667   0.5833333  )
        31           Si  tau(  31) = (  -0.1666667   0.5000000   0.3333333  )
        32           Si  tau(  32) = (  -0.0833333   0.5833333   0.4166667  )
        33           Si  tau(  33) = (  -0.3333333   0.5000000   0.5000000  )
        34           Si  tau(  34) = (  -0.2500000   0.5833333   0.5833333  )
        35           Si  tau(  35) = (  -0.5000000   0.5000000   0.6666667  )
        36           Si  tau(  36) = (  -0.4166667   0.5833333   0.7500000  )
        37           Si  tau(  37) = (  -0.3333333   0.3333333   0.0000000  )
        38           Si  tau(  38) = (  -0.2500000   0.4166667   0.0833333  )
        39           Si  tau(  39) = (  -0.5000000   0.3333333   0.1666667  )
        40           Si  tau(  40) = (  -0.4166667   0.4166667   0.2500000  )
        41           Si  tau(  41) = (  -0.6666667   0.3333333   0.3333333  )
        42           Si  tau(  42) = (  -0.5833333   0.4166667   0.4166667  )
        43           Si  tau(  43) = (  -0.3333333   0.5000000   0.1666667  )
        44           Si  tau(  44) = (  -0.2500000   0.5833333   0.2500000  )
        45           Si  tau(  45) = (  -0.5000000   0.5000000   0.3333333  )
        46           Si  tau(  46) = (  -0.4166667   0.5833333   0.4166667  )
        47           Si  tau(  47) = (  -0.6666667   0.5000000   0.5000000  )
        48           Si  tau(  48) = (  -0.5833333   0.5833333   0.5833333  )
        49           Si  tau(  49) = (  -0.3333333   0.6666667   0.3333333  )
        50           Si  tau(  50) = (  -0.2500000   0.7500000   0.4166667  )
        51           Si  tau(  51) = (  -0.5000000   0.6666667   0.5000000  )
        52           Si  tau(  52) = (  -0.4166667   0.7500000   0.5833333  )
        53           Si  tau(  53) = (  -0.6666667   0.6666667   0.6666667  )
        54           Si  tau(  54) = (  -0.5833333   0.7500000   0.7500000  )

     number of k points=     1
                       cart. coord. in units 2pi/alat
        k(    1) = (  -0.7466000   1.2242980  -0.1241600), wk =   2.0000000

     Dense  grid:    86547 G-vectors     FFT dimensions: (  64,  64,  64)

     Estimated max dynamical RAM per process >       7.21 MB

     Estimated total dynamical RAM >     403.73 MB

     The potential is recalculated from file :
     ./si_333_equil.save/charge-density

     Starting wfcs are  216 randomized atomic wfcs

     Band Structure Calculation
     Davidson diagonalization with overlap
     c_bands:  1 eigenvalues not converged

     ethr =  4.63E-11,  avg # of iterations =120.0

     total cpu time spent up to now is        3.8 secs

     End of band structure calculation

          k =-0.7466 1.2243-0.1242 ( 10802 PWs)   bands (ev):

    -5.3778  -5.2379  -5.1364  -4.8088  -4.7542  -4.3460  -3.9809  -3.9292
    -3.7771  -3.7281  -3.6590  -3.3842  -3.3587  -3.3014  -3.2485  -3.1717
    -3.1360  -3.0829  -3.0599  -3.0510  -2.9747  -2.9232  -2.0973  -2.0412
    -1.9404  -1.8965  -1.8789  -1.2522  -0.9995  -0.9731  -0.9452  -0.9043
    -0.7263  -0.6784  -0.5062  -0.4613  -0.3365  -0.2686  -0.0650  -0.0349
    -0.0207   0.1372   0.1800   0.3188   0.6875   0.7693   1.0394   1.1265
     1.5632   2.1383   2.1490   2.3386   2.3736   2.3776   2.4920   2.5410
     2.5674   2.6031   2.6274   2.6650   2.7045   2.7838   2.7914   2.9014
     2.9547   2.9909   2.9922   3.0004   3.0036   3.1204   3.1242   3.1321
     3.3884   3.4337   3.4406   3.4740   3.4754   3.4778   3.5022   3.5025
     3.5038   3.5667   3.5706   3.8225   3.9120   4.0716   4.0899   4.1271
     4.1736   4.2070   4.2809   4.3182   4.3731   4.4531   4.4733   4.4993
     4.5100   4.6196   4.6622   4.7772   4.8542   4.9349   5.2373   5.2992
     5.3284   5.3327   5.4108   5.9317   6.9373   7.4298   7.8451   7.9098
     7.9954   8.0677   8.1021   8.2785   8.3030   8.3758   8.4395   8.4533
     8.5079   8.6096   8.6221   8.6476   8.6616   8.7053   8.8011   8.8216
     8.9300   8.9783   9.0426   9.0793   9.1001   9.2200   9.3927

     highest occupied, lowest unoccupied level (ev):     5.9317    6.9373

     Writing output data file ./si_333_equil.save/
 
     init_run     :      0.04s CPU      0.06s WALL (       1 calls)
     electrons    :      3.52s CPU      3.58s WALL (       1 calls)

     Called by init_run:
     wfcinit      :      0.00s CPU      0.01s WALL (       1 calls)
     potinit      :      0.02s CPU      0.03s WALL (       1 calls)
     hinit0       :      0.00s CPU      0.01s WALL (       1 calls)

     Called by electrons:
     c_bands      :      3.52s CPU      3.58s WALL (       1 calls)
     v_of_rho     :      0.00s CPU      0.00s WALL (       1 calls)

     Called by c_bands:
     init_us_2    :      0.00s CPU      0.00s WALL (       1 calls)
     cegterg      :      3.42s CPU      3.46s WALL (       6 calls)

     Called by *egterg:
     cdiaghg      :      2.09s CPU      2.10s WALL (     121 calls)
     h_psi        :      1.09s CPU      1.12s WALL (     127 calls)
     g_psi        :      0.00s CPU      0.00s WALL (     120 calls)

     Called by h_psi:
     h_psi:calbec :      0.08s CPU      0.08s WALL (     127 calls)
     vloc_psi     :      0.95s CPU      0.98s WALL (     127 calls)
     add_vuspsi   :      0.05s CPU      0.06s WALL (     127 calls)

     General routines
     calbec       :      0.07s CPU      0.08s WALL (     127 calls)
     fft          :      0.00s CPU      0.01s WALL (       3 calls)
     fftw         :      0.89s CPU      0.92s WALL (    8166 calls)
     davcio       :      0.00s CPU      0.01s WALL (       2 calls)
 
     Parallel routines
 
     PWSCF        :      3.69s CPU      3.88s WALL

 
   This run was terminated on:  11:20:45  30May2021            

=------------------------------------------------------------------------------=
   JOB DONE.
=------------------------------------------------------------------------------=
TACC:  Shutdown complete. Exiting. 
