TACC:  Starting up job 3095199 
TACC:  Starting parallel tasks... 

     Program PWSCF v.6.7GPU starts on 13Jun2021 at  4: 4:11 

     This program is part of the open-source Quantum ESPRESSO suite
     for quantum simulation of materials; please cite
         "P. Giannozzi et al., J. Phys.:Condens. Matter 21 395502 (2009);
         "P. Giannozzi et al., J. Phys.:Condens. Matter 29 465901 (2017);
         "P. Giannozzi et al., J. Chem. Phys. 152 154105 (2020);
          URL http://www.quantum-espresso.org", 
     in publications or presentations arising from this work. More details at
     http://www.quantum-espresso.org/quote

     Parallel version (MPI), running on    54 processors

     MPI processes distributed on     1 nodes
     K-points division:     npool     =       3
     R & G space division:  proc/nbgrp/npool/nimage =      18
     Waiting for input...
     Reading input from standard input

     Current dimensions of program PWSCF are:
     Max number of different atomic species (ntypx) = 10
     Max number of k-points (npk) =  40000
     Max angular momentum in pseudopotentials (lmaxx) =  3
     Found symmetry operation: I + (  0.3333  0.0000  0.0000)
     This is a supercell, fractional translations are disabled

     Subspace diagonalization in iterative solution of the eigenvalue problem:
     one sub-group per band group will be used
     scalapack distributed-memory algorithm (size of sub-group:  4*  4 procs)

 
     Parallelization info
     --------------------
     sticks:   dense  smooth     PW     G-vecs:    dense   smooth      PW
     Min         143     143     39                 4807     4807     684
     Max         145     145     40                 4809     4809     687
     Sum        2587    2587    703                86547    86547   12339
 
     Using Slab Decomposition
 


     bravais-lattice index     =            2
     lattice parameter (alat)  =      30.6000  a.u.
     unit-cell volume          =    7163.1540 (a.u.)^3
     number of atoms/cell      =           54
     number of atomic types    =            1
     number of electrons       =       216.00
     number of Kohn-Sham states=          108
     kinetic-energy cutoff     =      20.0000  Ry
     charge density cutoff     =      80.0000  Ry
     scf convergence threshold =      1.0E-07
     mixing beta               =       0.7000
     number of iterations used =            8  plain     mixing
     Exchange-correlation= SLA  PZ   NOGX NOGC
                           (   1   1   0   0   0   0   0)

     celldm(1)=  30.600000  celldm(2)=   0.000000  celldm(3)=   0.000000
     celldm(4)=   0.000000  celldm(5)=   0.000000  celldm(6)=   0.000000

     crystal axes: (cart. coord. in units of alat)
               a(1) = (  -0.500000   0.000000   0.500000 )  
               a(2) = (   0.000000   0.500000   0.500000 )  
               a(3) = (  -0.500000   0.500000   0.000000 )  

     reciprocal axes: (cart. coord. in units 2 pi/alat)
               b(1) = ( -1.000000 -1.000000  1.000000 )  
               b(2) = (  1.000000  1.000000  1.000000 )  
               b(3) = ( -1.000000  1.000000 -1.000000 )  


     PseudoPot. # 1 for Si read from file:
     ./Si.pz-vbc.UPF
     MD5 check sum: 9f25e6ff280f3123e9b3a84715b2e9c9
     Pseudo is Norm-conserving, Zval =  4.0
     Generated by new atomic code, or converted to UPF format
     Using radial grid of  431 points,  2 beta functions with: 
                l(1) =   0
                l(2) =   1

     atomic species   valence    mass     pseudopotential
        Si             4.00    28.08600     Si( 1.00)

     24 Sym. Ops. (no inversion) found



   Cartesian axes

     site n.     atom                  positions (alat units)
         1           Si  tau(   1) = (   0.0000000   0.0000000   0.0000000  )
         2           Si  tau(   2) = (   0.0833333   0.0833333   0.0833333  )
         3           Si  tau(   3) = (  -0.1666667   0.0000000   0.1666667  )
         4           Si  tau(   4) = (  -0.0833333   0.0833333   0.2500000  )
         5           Si  tau(   5) = (  -0.3333333   0.0000000   0.3333333  )
         6           Si  tau(   6) = (  -0.2500000   0.0833333   0.4166667  )
         7           Si  tau(   7) = (   0.0000000   0.1666667   0.1666667  )
         8           Si  tau(   8) = (   0.0833333   0.2500000   0.2500000  )
         9           Si  tau(   9) = (  -0.1666667   0.1666667   0.3333333  )
        10           Si  tau(  10) = (  -0.0833333   0.2500000   0.4166667  )
        11           Si  tau(  11) = (  -0.3333333   0.1666667   0.5000000  )
        12           Si  tau(  12) = (  -0.2500000   0.2500000   0.5833333  )
        13           Si  tau(  13) = (   0.0000000   0.3333333   0.3333333  )
        14           Si  tau(  14) = (   0.0833333   0.4166667   0.4166667  )
        15           Si  tau(  15) = (  -0.1666667   0.3333333   0.5000000  )
        16           Si  tau(  16) = (  -0.0833333   0.4166667   0.5833333  )
        17           Si  tau(  17) = (  -0.3333333   0.3333333   0.6666667  )
        18           Si  tau(  18) = (  -0.2500000   0.4166667   0.7500000  )
        19           Si  tau(  19) = (  -0.1666667   0.1666667   0.0000000  )
        20           Si  tau(  20) = (  -0.0833333   0.2500000   0.0833333  )
        21           Si  tau(  21) = (  -0.3333333   0.1666667   0.1666667  )
        22           Si  tau(  22) = (  -0.2500000   0.2500000   0.2500000  )
        23           Si  tau(  23) = (  -0.5000000   0.1666667   0.3333333  )
        24           Si  tau(  24) = (  -0.4166667   0.2500000   0.4166667  )
        25           Si  tau(  25) = (  -0.1666667   0.3333333   0.1666667  )
        26           Si  tau(  26) = (  -0.0833333   0.4166667   0.2500000  )
        27           Si  tau(  27) = (  -0.3333333   0.3333333   0.3333333  )
        28           Si  tau(  28) = (  -0.2500000   0.4166667   0.4166667  )
        29           Si  tau(  29) = (  -0.5000000   0.3333333   0.5000000  )
        30           Si  tau(  30) = (  -0.4166667   0.4166667   0.5833333  )
        31           Si  tau(  31) = (  -0.1666667   0.5000000   0.3333333  )
        32           Si  tau(  32) = (  -0.0833333   0.5833333   0.4166667  )
        33           Si  tau(  33) = (  -0.3333333   0.5000000   0.5000000  )
        34           Si  tau(  34) = (  -0.2500000   0.5833333   0.5833333  )
        35           Si  tau(  35) = (  -0.5000000   0.5000000   0.6666667  )
        36           Si  tau(  36) = (  -0.4166667   0.5833333   0.7500000  )
        37           Si  tau(  37) = (  -0.3333333   0.3333333   0.0000000  )
        38           Si  tau(  38) = (  -0.2500000   0.4166667   0.0833333  )
        39           Si  tau(  39) = (  -0.5000000   0.3333333   0.1666667  )
        40           Si  tau(  40) = (  -0.4166667   0.4166667   0.2500000  )
        41           Si  tau(  41) = (  -0.6666667   0.3333333   0.3333333  )
        42           Si  tau(  42) = (  -0.5833333   0.4166667   0.4166667  )
        43           Si  tau(  43) = (  -0.3333333   0.5000000   0.1666667  )
        44           Si  tau(  44) = (  -0.2500000   0.5833333   0.2500000  )
        45           Si  tau(  45) = (  -0.5000000   0.5000000   0.3333333  )
        46           Si  tau(  46) = (  -0.4166667   0.5833333   0.4166667  )
        47           Si  tau(  47) = (  -0.6666667   0.5000000   0.5000000  )
        48           Si  tau(  48) = (  -0.5833333   0.5833333   0.5833333  )
        49           Si  tau(  49) = (  -0.3333333   0.6666667   0.3333333  )
        50           Si  tau(  50) = (  -0.2500000   0.7500000   0.4166667  )
        51           Si  tau(  51) = (  -0.5000000   0.6666667   0.5000000  )
        52           Si  tau(  52) = (  -0.4166667   0.7500000   0.5833333  )
        53           Si  tau(  53) = (  -0.6666667   0.6666667   0.6666667  )
        54           Si  tau(  54) = (  -0.5833333   0.7500000   0.7500000  )

     number of k points=     3
                       cart. coord. in units 2pi/alat
        k(    1) = (   0.0000000   0.0000000   0.0000000), wk =   0.2500000
        k(    2) = (   0.5000000  -0.5000000   0.5000000), wk =   1.0000000
        k(    3) = (   0.0000000  -1.0000000   0.0000000), wk =   0.7500000

     Dense  grid:    86547 G-vectors     FFT dimensions: (  64,  64,  64)

     Estimated max dynamical RAM per process >      11.19 MB

     Estimated total dynamical RAM >     561.91 MB

     Initial potential from superposition of free atoms

     starting charge  215.97322, renormalised to  216.00000
     Starting wfcs are  216 randomized atomic wfcs

     total cpu time spent up to now is        0.9 secs

     Self-consistent Calculation

     iteration #  1     ecut=    20.00 Ry     beta= 0.70
     Davidson diagonalization with overlap
     ethr =  1.00E-02,  avg # of iterations =  2.0

     Threshold (ethr) on eigenvalues was too large:
     Diagonalizing with lowered threshold

     Davidson diagonalization with overlap
     ethr =  7.03E-04,  avg # of iterations =  1.0

     total cpu time spent up to now is        1.5 secs

     total energy              =    -427.74161555 Ry
     estimated scf accuracy    <       1.67004815 Ry

     iteration #  2     ecut=    20.00 Ry     beta= 0.70
     Davidson diagonalization with overlap
     ethr =  7.73E-04,  avg # of iterations =  1.0

     total cpu time spent up to now is        1.7 secs

     total energy              =    -427.82671645 Ry
     estimated scf accuracy    <       0.06068607 Ry

     iteration #  3     ecut=    20.00 Ry     beta= 0.70
     Davidson diagonalization with overlap
     ethr =  2.81E-05,  avg # of iterations =  2.7

     total cpu time spent up to now is        1.9 secs

     total energy              =    -427.83828408 Ry
     estimated scf accuracy    <       0.00185894 Ry

     iteration #  4     ecut=    20.00 Ry     beta= 0.70
     Davidson diagonalization with overlap
     ethr =  8.61E-07,  avg # of iterations =  3.3

     total cpu time spent up to now is        2.1 secs

     total energy              =    -427.83889336 Ry
     estimated scf accuracy    <       0.00003614 Ry

     iteration #  5     ecut=    20.00 Ry     beta= 0.70
     Davidson diagonalization with overlap
     ethr =  1.67E-08,  avg # of iterations =  5.7

     total cpu time spent up to now is        2.4 secs

     total energy              =    -427.83892710 Ry
     estimated scf accuracy    <       0.00001197 Ry

     iteration #  6     ecut=    20.00 Ry     beta= 0.70
     Davidson diagonalization with overlap
     ethr =  5.54E-09,  avg # of iterations =  2.3

     total cpu time spent up to now is        2.6 secs

     total energy              =    -427.83892810 Ry
     estimated scf accuracy    <       0.00000219 Ry

     iteration #  7     ecut=    20.00 Ry     beta= 0.70
     Davidson diagonalization with overlap
     ethr =  1.01E-09,  avg # of iterations =  3.3

     total cpu time spent up to now is        2.8 secs

     total energy              =    -427.83892824 Ry
     estimated scf accuracy    <       0.00000029 Ry

     iteration #  8     ecut=    20.00 Ry     beta= 0.70
     Davidson diagonalization with overlap
     ethr =  1.33E-10,  avg # of iterations =  4.3

     total cpu time spent up to now is        3.0 secs

     total energy              =    -427.83892827 Ry
     estimated scf accuracy    <       0.00000011 Ry

     iteration #  9     ecut=    20.00 Ry     beta= 0.70
     Davidson diagonalization with overlap
     ethr =  5.17E-11,  avg # of iterations =  2.0

     total cpu time spent up to now is        3.2 secs

     End of self-consistent calculation

          k = 0.0000 0.0000 0.0000 ( 10849 PWs)   bands (ev):

    -5.8114  -4.4081  -4.4080  -4.4080  -4.4080  -4.4080  -4.4080  -4.4080
    -4.4079  -3.8750  -3.8750  -3.8750  -3.8750  -3.8750  -3.8750  -2.4770
    -2.4770  -2.4770  -2.4770  -2.4770  -2.4770  -2.4770  -2.4769  -2.4769
    -2.4769  -2.4769  -2.4769  -0.5444  -0.5444  -0.5444  -0.5444  -0.5444
    -0.5444  -0.5444  -0.5444  -0.5444  -0.5444  -0.5444  -0.5444   0.8586
     0.8586   0.8586   0.8586   0.8586   0.8586   0.8586   0.8586   1.2512
     1.2512   1.2512   1.2512   1.2512   1.2512   1.7145   1.7145   1.7145
     1.7145   1.7145   1.7145   1.7145   1.7145   1.7145   1.7145   1.7145
     1.7145   3.7812   3.7812   3.7812   3.7812   3.7812   3.7812   3.7812
     3.7812   3.7812   3.7812   3.7812   3.7812   4.0945   4.0945   4.0945
     4.0945   4.0945   4.0945   4.0945   4.0945   4.0945   4.0945   4.0945
     4.0945   5.2334   5.2334   5.2334   5.2335   5.2335   5.2335   5.2335
     5.2335   5.2335   5.2335   5.2335   5.2335   5.2335   5.2335   5.2335
     5.2335   6.2534   6.2534   6.2534

          k = 0.5000-0.5000 0.5000 ( 10790 PWs)   bands (ev):

    -5.4433  -5.4433  -4.4895  -4.4895  -4.4895  -4.4894  -4.4894  -4.4894
    -3.6624  -3.6624  -3.6624  -3.6624  -3.6624  -3.6624  -3.4169  -2.6876
    -2.6876  -2.6876  -2.6875  -2.6875  -2.6875  -2.4648  -2.4648  -2.4648
    -2.4648  -2.4648  -2.4648  -0.8208  -0.6285  -0.6285  -0.6285  -0.6285
    -0.6285  -0.6285  -0.3265  -0.3265  -0.3265  -0.3264  -0.3264  -0.3264
     0.1898   0.1898   0.1898   0.1899   0.1899   0.1899   1.7966   1.7966
     1.7966   1.7966   1.7966   1.7966   2.1428   2.1428   2.1429   2.1429
     2.1429   2.1429   2.5223   2.5223   2.5223   2.5224   2.5224   2.5224
     3.1426   3.1426   3.1426   3.1426   3.1426   3.1426   3.4162   3.4162
     3.4162   3.4162   3.4162   3.4162   3.6419   3.6419   3.6419   3.6419
     3.6419   3.6419   3.8569   3.8569   4.2249   4.2250   4.2250   4.2250
     4.2250   4.2250   4.4672   4.4672   4.4672   4.4672   4.4672   4.4672
     4.9296   4.9296   4.9296   4.9297   4.9297   4.9297   5.0331   5.0331
     5.7945   5.7945   5.7945   5.7945

          k = 0.0000-1.0000 0.0000 ( 10846 PWs)   bands (ev):

    -5.3195  -5.3194  -4.8453  -4.8452  -4.8452  -4.8452  -3.4804  -3.4804
    -3.4804  -3.4804  -3.4804  -3.4804  -3.4804  -3.4804  -3.2639  -3.2639
    -3.2638  -3.2638  -3.2638  -3.2638  -3.2638  -3.2638  -1.5963  -1.5963
    -1.4668  -1.4668  -1.4668  -1.4668  -1.4668  -1.4668  -1.4668  -1.4668
    -0.4271  -0.4271  -0.4271  -0.4271  -0.4271  -0.4271  -0.4271  -0.4271
     0.6002   0.6002   0.6002   0.6002   0.6002   0.6002   0.6002   0.6002
     2.5066   2.5066   2.5066   2.5066   2.5066   2.5066   2.5066   2.5066
     2.5282   2.5282   2.5282   2.5282   2.5892   2.5892   2.5892   2.5892
     2.5892   2.5892   2.5892   2.5892   3.3377   3.3377   3.4257   3.4257
     3.4257   3.4257   3.4257   3.4257   3.4257   3.4257   3.7765   3.7766
     3.7766   3.7766   3.8993   3.8993   3.8993   3.8994   3.8994   3.8994
     3.8994   3.8994   4.2402   4.2402   4.4383   4.4383   4.4383   4.4383
     4.4384   4.4384   4.4384   4.4384   5.0306   5.0306   5.0306   5.0306
     5.6805   5.6805   5.6805   5.6805

     highest occupied level (ev):     6.2534

!    total energy              =    -427.83892825 Ry
     estimated scf accuracy    <       0.00000003 Ry

     The total energy is the sum of the following terms:
     one-electron contribution =     129.33146612 Ry
     hartree contribution      =      29.19351309 Ry
     xc contribution           =    -130.07042607 Ry
     ewald contribution        =    -456.29348139 Ry

     convergence has been achieved in   9 iterations

     Writing output data file ./si_333_equil.save/
 
     init_run     :      0.24s CPU      0.43s WALL (       1 calls)
     electrons    :      1.89s CPU      2.27s WALL (       1 calls)

     Called by init_run:
     wfcinit      :      0.11s CPU      0.16s WALL (       1 calls)
     potinit      :      0.08s CPU      0.12s WALL (       1 calls)
     hinit0       :      0.00s CPU      0.08s WALL (       1 calls)

     Called by electrons:
     c_bands      :      1.69s CPU      1.74s WALL (      10 calls)
     sum_band     :      0.17s CPU      0.25s WALL (      10 calls)
     v_of_rho     :      0.01s CPU      0.02s WALL (      10 calls)
     mix_rho      :      0.01s CPU      0.13s WALL (      10 calls)

     Called by c_bands:
     init_us_2    :      0.02s CPU      0.03s WALL (      21 calls)
     cegterg      :      1.54s CPU      1.59s WALL (      10 calls)

     Called by *egterg:
     cdiaghg      :      0.39s CPU      0.40s WALL (      39 calls)
     h_psi        :      0.91s CPU      0.95s WALL (      41 calls)
     g_psi        :      0.00s CPU      0.00s WALL (      30 calls)

     Called by h_psi:
     h_psi:calbec :      0.09s CPU      0.10s WALL (      41 calls)
     vloc_psi     :      0.73s CPU      0.75s WALL (      41 calls)
     add_vuspsi   :      0.08s CPU      0.09s WALL (      41 calls)

     General routines
     calbec       :      0.09s CPU      0.09s WALL (      41 calls)
     fft          :      0.01s CPU      0.08s WALL (      30 calls)
     ffts         :      0.00s CPU      0.00s WALL (      10 calls)
     fftw         :      0.75s CPU      0.77s WALL (    7344 calls)
 
     Parallel routines
 
     PWSCF        :      2.16s CPU      3.29s WALL

 
   This run was terminated on:   4: 4:14  13Jun2021            

=------------------------------------------------------------------------------=
   JOB DONE.
=------------------------------------------------------------------------------=
TACC:  Shutdown complete. Exiting. 
