TACC:  Starting up job 3032915 
TACC:  Starting parallel tasks... 

     Program PHONON v.6.7GPU starts on 30May2021 at  8:34:39 

     This program is part of the open-source Quantum ESPRESSO suite
     for quantum simulation of materials; please cite
         "P. Giannozzi et al., J. Phys.:Condens. Matter 21 395502 (2009);
         "P. Giannozzi et al., J. Phys.:Condens. Matter 29 465901 (2017);
         "P. Giannozzi et al., J. Chem. Phys. 152 154105 (2020);
          URL http://www.quantum-espresso.org", 
     in publications or presentations arising from this work. More details at
     http://www.quantum-espresso.org/quote

     Parallel version (MPI), running on     4 processors

     MPI processes distributed on     1 nodes
     K-points division:     npool     =       4
     Waiting for input...
     Reading input from standard input

     Reading xml data from directory:

     ./si.save/

     IMPORTANT: XC functional enforced from input :
     Exchange-correlation= PZ
                           (   1   1   0   0   0   0   0)
     Any further DFT definition will be discarded
     Please, verify this is what you really want

 
     G-vector sticks info
     --------------------
     sticks:   dense  smooth     PW     G-vecs:    dense   smooth      PW
     Sum         283     283     97                 3143     3143     645
 
     Using Slab Decomposition
 
     Reading collected, re-writing distributed wavefunctions


     Dynamical matrices for ( 4, 4, 4)  uniform grid of q-points
     (   8 q-points):
       N         xq(1)         xq(2)         xq(3) 
       1   0.000000000   0.000000000   0.000000000
       2  -0.250000000   0.250000000  -0.250000000
       3   0.500000000  -0.500000000   0.500000000
       4   0.000000000   0.500000000   0.000000000
       5   0.750000000  -0.250000000   0.750000000
       6   0.500000000   0.000000000   0.500000000
       7   0.000000000  -1.000000000   0.000000000
       8  -0.500000000  -1.000000000   0.000000000

     Calculation of q =    0.0000000   0.0000000   0.0000000

     --                                                                         

     bravais-lattice index     =            2
     lattice parameter (alat)  =      10.2000  a.u.
     unit-cell volume          =     265.3020 (a.u.)^3
     number of atoms/cell      =            2
     number of atomic types    =            1
     kinetic-energy cut-off    =      20.0000  Ry
     charge density cut-off    =      80.0000  Ry
     convergence threshold     =      1.0E-12
     beta                      =       0.7000
     number of iterations used =            4
     Exchange-correlation= PZ
                           (   1   1   0   0   0   0   0)


     celldm(1)=   10.20000  celldm(2)=    0.00000  celldm(3)=    0.00000
     celldm(4)=    0.00000  celldm(5)=    0.00000  celldm(6)=    0.00000

     crystal axes: (cart. coord. in units of alat)
               a(1) = ( -0.5000  0.0000  0.5000 )  
               a(2) = (  0.0000  0.5000  0.5000 )  
               a(3) = ( -0.5000  0.5000  0.0000 )  

     reciprocal axes: (cart. coord. in units 2 pi/alat)
               b(1) = ( -1.0000 -1.0000  1.0000 )  
               b(2) = (  1.0000  1.0000  1.0000 )  
               b(3) = ( -1.0000  1.0000 -1.0000 )  


     Atoms inside the unit cell: 

     Cartesian axes

     site n.  atom      mass           positions (alat units)
        1     Si  28.0855   tau(    1) = (    0.00000    0.00000    0.00000  )
        2     Si  28.0855   tau(    2) = (    0.25000    0.25000    0.25000  )

     Computing dynamical matrix for 
                    q = (   0.0000000   0.0000000   0.0000000 )
 
     49 Sym.Ops. (with q -> -q+G )


     G cutoff =  210.8291  (   3143 G-vectors)     FFT grid: ( 24, 24, 24)
     number of k points=    16

     PseudoPot. # 1 for Si read from file:
     ./Si.pz-vbc.UPF
     MD5 check sum: 9f25e6ff280f3123e9b3a84715b2e9c9
     Pseudo is Norm-conserving, Zval =  4.0
     Generated by new atomic code, or converted to UPF format
     Using radial grid of  431 points,  2 beta functions with: 
                l(1) =   0
                l(2) =   1

     Mode symmetry, O_h (m-3m)  point group:


     Electric field:
     Dielectric constant
     Born effective charges in two ways 


     Atomic displacements:
     There are    2 irreducible representations

     Representation     1      3 modes -  To be done

     Representation     2      3 modes -  To be done



     Alpha used in Ewald sum =   0.8000
     PHONON       :      0.11s CPU      2.24s WALL


     Electric Fields Calculation

      iter #   1 total cpu time :     2.5 secs   av.it.:   6.8
      thresh= 1.000E-02 alpha_mix =  0.700 |ddv_scf|^2 =  5.299E-07

      iter #   2 total cpu time :     2.7 secs   av.it.:   9.7
      thresh= 7.280E-05 alpha_mix =  0.700 |ddv_scf|^2 =  2.054E-08

      iter #   3 total cpu time :     2.7 secs   av.it.:  10.0
      thresh= 1.433E-05 alpha_mix =  0.700 |ddv_scf|^2 =  2.448E-10

      iter #   4 total cpu time :     2.8 secs   av.it.:   9.9
      thresh= 1.565E-06 alpha_mix =  0.700 |ddv_scf|^2 =  1.096E-12

      iter #   5 total cpu time :     3.0 secs   av.it.:   9.6
      thresh= 1.047E-07 alpha_mix =  0.700 |ddv_scf|^2 =  9.968E-16

     End of electric fields calculation

          Dielectric constant in cartesian axis 

          (      16.296838427       0.000000000      -0.000000000 )
          (       0.000000000      16.296838427      -0.000000000 )
          (       0.000000000      -0.000000000      16.296838427 )

          Effective charges (d Force / dE) in cartesian axis

           atom      1   Si 
      Ex  (       -0.32007        0.00000        0.00000 )
      Ey  (        0.00000       -0.32007       -0.00000 )
      Ez  (        0.00000       -0.00000       -0.32007 )
           atom      2   Si 
      Ex  (       -0.32007        0.00000        0.00000 )
      Ey  (        0.00000       -0.32007       -0.00000 )
      Ez  (        0.00000       -0.00000       -0.32007 )


     Representation #   1 modes #   1   2   3

     Self-consistent Calculation

      iter #   1 total cpu time :     3.3 secs   av.it.:   4.9
      thresh= 1.000E-02 alpha_mix =  0.700 |ddv_scf|^2 =  1.096E-07

      iter #   2 total cpu time :     3.4 secs   av.it.:   9.4
      thresh= 3.311E-05 alpha_mix =  0.700 |ddv_scf|^2 =  1.911E-09

      iter #   3 total cpu time :     3.5 secs   av.it.:   9.3
      thresh= 4.371E-06 alpha_mix =  0.700 |ddv_scf|^2 =  2.190E-11

      iter #   4 total cpu time :     3.6 secs   av.it.:   8.9
      thresh= 4.680E-07 alpha_mix =  0.700 |ddv_scf|^2 =  1.823E-14

     End of self-consistent calculation

     Convergence has been achieved 


     Representation #   2 modes #   4   5   6

     Self-consistent Calculation

      iter #   1 total cpu time :     3.7 secs   av.it.:   5.1
      thresh= 1.000E-02 alpha_mix =  0.700 |ddv_scf|^2 =  7.791E-08

      iter #   2 total cpu time :     3.9 secs   av.it.:   9.7
      thresh= 2.791E-05 alpha_mix =  0.700 |ddv_scf|^2 =  2.873E-09

      iter #   3 total cpu time :     4.0 secs   av.it.:   9.6
      thresh= 5.360E-06 alpha_mix =  0.700 |ddv_scf|^2 =  2.831E-11

      iter #   4 total cpu time :     4.1 secs   av.it.:   9.4
      thresh= 5.321E-07 alpha_mix =  0.700 |ddv_scf|^2 =  6.064E-14

     End of self-consistent calculation

     Convergence has been achieved 
 
     Number of q in the star =    1
     List of q in the star:
          1   0.000000000   0.000000000   0.000000000

          Dielectric constant in cartesian axis 

          (      16.296838427       0.000000000      -0.000000000 )
          (       0.000000000      16.296838427      -0.000000000 )
          (       0.000000000      -0.000000000      16.296838427 )

          Effective charges (d Force / dE) in cartesian axis

           atom      1   Si 
      Ex  (       -0.32007        0.00000        0.00000 )
      Ey  (        0.00000       -0.32007       -0.00000 )
      Ez  (        0.00000       -0.00000       -0.32007 )
           atom      2   Si 
      Ex  (       -0.32007        0.00000        0.00000 )
      Ey  (        0.00000       -0.32007       -0.00000 )
      Ez  (        0.00000       -0.00000       -0.32007 )

          Effective charges (d P / du) in cartesian axis 

           atom      1   Si 
      Px  (       -0.31800       -0.00000        0.00000 )
      Py  (       -0.00000       -0.31800        0.00000 )
      Pz  (        0.00000        0.00000       -0.31800 )
           atom      2   Si 
      Px  (       -0.31800        0.00000        0.00000 )
      Py  (       -0.00000       -0.31800        0.00000 )
      Pz  (        0.00000       -0.00000       -0.31800 )

     Diagonalizing the dynamical matrix

     q = (    0.000000000   0.000000000   0.000000000 ) 

 **************************************************************************
     freq (    1) =       0.477191 [THz] =      15.917390 [cm-1]
     freq (    2) =       0.477191 [THz] =      15.917390 [cm-1]
     freq (    3) =       0.477191 [THz] =      15.917390 [cm-1]
     freq (    4) =      15.289761 [THz] =     510.011530 [cm-1]
     freq (    5) =      15.289761 [THz] =     510.011530 [cm-1]
     freq (    6) =      15.289761 [THz] =     510.011530 [cm-1]
 **************************************************************************

     Mode symmetry, O_h (m-3m)  point group:

     freq (   1-   3) =         15.9  [cm-1]   --> T_1u G_15  G_4- I  
     freq (   4-   6) =        510.0  [cm-1]   --> T_2g G_25' G_5+ R  

     Calculation of q =   -0.2500000   0.2500000  -0.2500000

     Subspace diagonalization in iterative solution of the eigenvalue problem:
     a serial algorithm will be used

 
     G-vector sticks info
     --------------------
     sticks:   dense  smooth     PW     G-vecs:    dense   smooth      PW
     Sum         283     283    109                 3143     3143     725
 
     Using Slab Decomposition
 

     Title: 
     --                                                                         


     bravais-lattice index     =            2
     lattice parameter (alat)  =      10.2000  a.u.
     unit-cell volume          =     265.3020 (a.u.)^3
     number of atoms/cell      =            2
     number of atomic types    =            1
     number of electrons       =         8.00
     number of Kohn-Sham states=            4
     kinetic-energy cutoff     =      20.0000  Ry
     charge density cutoff     =      80.0000  Ry
     Exchange-correlation= PZ
                           (   1   1   0   0   0   0   0)

     celldm(1)=  10.200000  celldm(2)=   0.000000  celldm(3)=   0.000000
     celldm(4)=   0.000000  celldm(5)=   0.000000  celldm(6)=   0.000000

     crystal axes: (cart. coord. in units of alat)
               a(1) = (  -0.500000   0.000000   0.500000 )  
               a(2) = (   0.000000   0.500000   0.500000 )  
               a(3) = (  -0.500000   0.500000   0.000000 )  

     reciprocal axes: (cart. coord. in units 2 pi/alat)
               b(1) = ( -1.000000 -1.000000  1.000000 )  
               b(2) = (  1.000000  1.000000  1.000000 )  
               b(3) = ( -1.000000  1.000000 -1.000000 )  


     PseudoPot. # 1 for Si read from file:
     ./Si.pz-vbc.UPF
     MD5 check sum: 9f25e6ff280f3123e9b3a84715b2e9c9
     Pseudo is Norm-conserving, Zval =  4.0
     Generated by new atomic code, or converted to UPF format
     Using radial grid of  431 points,  2 beta functions with: 
                l(1) =   0
                l(2) =   1

     atomic species   valence    mass     pseudopotential
        Si             4.00    28.08550     Si( 1.00)

     48 Sym. Ops., with inversion, found



   Cartesian axes

     site n.     atom                  positions (alat units)
         1           Si  tau(   1) = (   0.0000000   0.0000000   0.0000000  )
         2           Si  tau(   2) = (   0.2500000   0.2500000   0.2500000  )

     number of k points=   112

     Number of k-points >= 100: set verbosity='high' to print them.

     Dense  grid:     3143 G-vectors     FFT dimensions: (  24,  24,  24)

     Estimated max dynamical RAM per process >       1.68 MB

     Estimated total dynamical RAM >       6.72 MB

     The potential is recalculated from file :
     ./_ph0/si.save/charge-density

     Starting wfcs are    8 atomic wfcs

     Band Structure Calculation
     Davidson diagonalization with overlap

     ethr =  1.25E-10,  avg # of iterations = 11.3

     total cpu time spent up to now is        0.2 secs

     End of band structure calculation

     Number of k-points >= 100: set verbosity='high' to print the bands.

     highest occupied level (ev):     6.2534

     Writing output data file ./_ph0/si.save/

     --                                                                         

     bravais-lattice index     =            2
     lattice parameter (alat)  =      10.2000  a.u.
     unit-cell volume          =     265.3020 (a.u.)^3
     number of atoms/cell      =            2
     number of atomic types    =            1
     kinetic-energy cut-off    =      20.0000  Ry
     charge density cut-off    =      80.0000  Ry
     convergence threshold     =      1.0E-12
     beta                      =       0.7000
     number of iterations used =            4
     Exchange-correlation= PZ
                           (   1   1   0   0   0   0   0)


     celldm(1)=   10.20000  celldm(2)=    0.00000  celldm(3)=    0.00000
     celldm(4)=    0.00000  celldm(5)=    0.00000  celldm(6)=    0.00000

     crystal axes: (cart. coord. in units of alat)
               a(1) = ( -0.5000  0.0000  0.5000 )  
               a(2) = (  0.0000  0.5000  0.5000 )  
               a(3) = ( -0.5000  0.5000  0.0000 )  

     reciprocal axes: (cart. coord. in units 2 pi/alat)
               b(1) = ( -1.0000 -1.0000  1.0000 )  
               b(2) = (  1.0000  1.0000  1.0000 )  
               b(3) = ( -1.0000  1.0000 -1.0000 )  


     Atoms inside the unit cell: 

     Cartesian axes

     site n.  atom      mass           positions (alat units)
        1     Si  28.0855   tau(    1) = (    0.00000    0.00000    0.00000  )
        2     Si  28.0855   tau(    2) = (    0.25000    0.25000    0.25000  )

     Computing dynamical matrix for 
                    q = (  -0.2500000   0.2500000  -0.2500000 )
 
      6 Sym.Ops. (no q -> -q+G )


     G cutoff =  210.8291  (   3143 G-vectors)     FFT grid: ( 24, 24, 24)
     number of k points=   112

     PseudoPot. # 1 for Si read from file:
     ./Si.pz-vbc.UPF
     MD5 check sum: 9f25e6ff280f3123e9b3a84715b2e9c9
     Pseudo is Norm-conserving, Zval =  4.0
     Generated by new atomic code, or converted to UPF format
     Using radial grid of  431 points,  2 beta functions with: 
                l(1) =   0
                l(2) =   1

     Mode symmetry, C_3v (3m)   point group:


     Atomic displacements:
     There are    4 irreducible representations

     Representation     1      1 modes -  To be done

     Representation     2      1 modes -  To be done

     Representation     3      2 modes -  To be done

     Representation     4      2 modes -  To be done



     Alpha used in Ewald sum =   0.8000
     PHONON       :      1.67s CPU      4.44s WALL



     Representation #   1 mode #   1

     Self-consistent Calculation

      iter #   1 total cpu time :     4.5 secs   av.it.:   5.8
      thresh= 1.000E-02 alpha_mix =  0.700 |ddv_scf|^2 =  1.535E-03

      iter #   2 total cpu time :     4.6 secs   av.it.:   7.6
      thresh= 3.917E-03 alpha_mix =  0.700 |ddv_scf|^2 =  2.371E-02

      iter #   3 total cpu time :     4.6 secs   av.it.:   6.4
      thresh= 1.000E-02 alpha_mix =  0.700 |ddv_scf|^2 =  9.959E-07

      iter #   4 total cpu time :     4.7 secs   av.it.:   8.1
      thresh= 9.980E-05 alpha_mix =  0.700 |ddv_scf|^2 =  9.843E-08

      iter #   5 total cpu time :     4.8 secs   av.it.:   7.7
      thresh= 3.137E-05 alpha_mix =  0.700 |ddv_scf|^2 =  3.031E-10

      iter #   6 total cpu time :     4.9 secs   av.it.:   8.1
      thresh= 1.741E-06 alpha_mix =  0.700 |ddv_scf|^2 =  6.914E-10

      iter #   7 total cpu time :     5.0 secs   av.it.:   6.3
      thresh= 2.629E-06 alpha_mix =  0.700 |ddv_scf|^2 =  1.503E-11

      iter #   8 total cpu time :     5.1 secs   av.it.:   7.7
      thresh= 3.877E-07 alpha_mix =  0.700 |ddv_scf|^2 =  3.768E-13

     End of self-consistent calculation

     Convergence has been achieved 


     Representation #   2 mode #   2

     Self-consistent Calculation

      iter #   1 total cpu time :     5.1 secs   av.it.:   5.8
      thresh= 1.000E-02 alpha_mix =  0.700 |ddv_scf|^2 =  1.535E-03

      iter #   2 total cpu time :     5.2 secs   av.it.:   7.6
      thresh= 3.917E-03 alpha_mix =  0.700 |ddv_scf|^2 =  2.371E-02

      iter #   3 total cpu time :     5.3 secs   av.it.:   6.4
      thresh= 1.000E-02 alpha_mix =  0.700 |ddv_scf|^2 =  9.953E-07

      iter #   4 total cpu time :     5.4 secs   av.it.:   8.1
      thresh= 9.976E-05 alpha_mix =  0.700 |ddv_scf|^2 =  9.991E-08

      iter #   5 total cpu time :     5.4 secs   av.it.:   7.7
      thresh= 3.161E-05 alpha_mix =  0.700 |ddv_scf|^2 =  8.786E-10

      iter #   6 total cpu time :     5.5 secs   av.it.:   7.5
      thresh= 2.964E-06 alpha_mix =  0.700 |ddv_scf|^2 =  1.422E-09

      iter #   7 total cpu time :     5.6 secs   av.it.:   6.8
      thresh= 3.771E-06 alpha_mix =  0.700 |ddv_scf|^2 =  1.357E-11

      iter #   8 total cpu time :     5.7 secs   av.it.:   8.0
      thresh= 3.683E-07 alpha_mix =  0.700 |ddv_scf|^2 =  3.311E-13

     End of self-consistent calculation

     Convergence has been achieved 


     Representation #   3 modes #   3   4

     Self-consistent Calculation

      iter #   1 total cpu time :     5.8 secs   av.it.:   5.2
      thresh= 1.000E-02 alpha_mix =  0.700 |ddv_scf|^2 =  2.961E-07

      iter #   2 total cpu time :     6.0 secs   av.it.:   9.9
      thresh= 5.442E-05 alpha_mix =  0.700 |ddv_scf|^2 =  1.626E-08

      iter #   3 total cpu time :     6.2 secs   av.it.:   9.6
      thresh= 1.275E-05 alpha_mix =  0.700 |ddv_scf|^2 =  8.085E-11

      iter #   4 total cpu time :     6.3 secs   av.it.:   9.4
      thresh= 8.992E-07 alpha_mix =  0.700 |ddv_scf|^2 =  5.195E-12

      iter #   5 total cpu time :     6.5 secs   av.it.:   9.3
      thresh= 2.279E-07 alpha_mix =  0.700 |ddv_scf|^2 =  9.093E-15

     End of self-consistent calculation

     Convergence has been achieved 


     Representation #   4 modes #   5   6

     Self-consistent Calculation

      iter #   1 total cpu time :     6.7 secs   av.it.:   5.1
      thresh= 1.000E-02 alpha_mix =  0.700 |ddv_scf|^2 =  2.961E-07

      iter #   2 total cpu time :     6.8 secs   av.it.:   9.7
      thresh= 5.442E-05 alpha_mix =  0.700 |ddv_scf|^2 =  1.625E-08

      iter #   3 total cpu time :     7.0 secs   av.it.:   9.3
      thresh= 1.275E-05 alpha_mix =  0.700 |ddv_scf|^2 =  8.094E-11

      iter #   4 total cpu time :     7.2 secs   av.it.:   9.2
      thresh= 8.997E-07 alpha_mix =  0.700 |ddv_scf|^2 =  5.193E-12

      iter #   5 total cpu time :     7.4 secs   av.it.:   9.1
      thresh= 2.279E-07 alpha_mix =  0.700 |ddv_scf|^2 =  9.194E-15

     End of self-consistent calculation

     Convergence has been achieved 
 
     Number of q in the star =    8
     List of q in the star:
          1  -0.250000000   0.250000000  -0.250000000
          2   0.250000000  -0.250000000  -0.250000000
          3   0.250000000  -0.250000000   0.250000000
          4   0.250000000   0.250000000   0.250000000
          5  -0.250000000  -0.250000000  -0.250000000
          6  -0.250000000  -0.250000000   0.250000000
          7  -0.250000000   0.250000000   0.250000000
          8   0.250000000   0.250000000  -0.250000000

     Diagonalizing the dynamical matrix

     q = (   -0.250000000   0.250000000  -0.250000000 ) 

 **************************************************************************
     freq (    1) =       2.828065 [THz] =      94.334084 [cm-1]
     freq (    2) =       2.828065 [THz] =      94.334084 [cm-1]
     freq (    3) =       6.898576 [THz] =     230.111716 [cm-1]
     freq (    4) =      14.371550 [THz] =     479.383291 [cm-1]
     freq (    5) =      14.733377 [THz] =     491.452560 [cm-1]
     freq (    6) =      14.733377 [THz] =     491.452560 [cm-1]
 **************************************************************************

     Mode symmetry, C_3v (3m)   point group:

     freq (   1-   2) =         94.3  [cm-1]   --> E    L_3           
     freq (   3-   3) =        230.1  [cm-1]   --> A_1  L_1           
     freq (   4-   4) =        479.4  [cm-1]   --> A_1  L_1           
     freq (   5-   6) =        491.5  [cm-1]   --> E    L_3           

     Calculation of q =    0.5000000  -0.5000000   0.5000000
 
     G-vector sticks info
     --------------------
     sticks:   dense  smooth     PW     G-vecs:    dense   smooth      PW
     Sum         283     283    121                 3143     3143     869
 
     Using Slab Decomposition
 

     Title: 
     --                                                                         


     bravais-lattice index     =            2
     lattice parameter (alat)  =      10.2000  a.u.
     unit-cell volume          =     265.3020 (a.u.)^3
     number of atoms/cell      =            2
     number of atomic types    =            1
     number of electrons       =         8.00
     number of Kohn-Sham states=            4
     kinetic-energy cutoff     =      20.0000  Ry
     charge density cutoff     =      80.0000  Ry
     Exchange-correlation= PZ
                           (   1   1   0   0   0   0   0)

     celldm(1)=  10.200000  celldm(2)=   0.000000  celldm(3)=   0.000000
     celldm(4)=   0.000000  celldm(5)=   0.000000  celldm(6)=   0.000000

     crystal axes: (cart. coord. in units of alat)
               a(1) = (  -0.500000   0.000000   0.500000 )  
               a(2) = (   0.000000   0.500000   0.500000 )  
               a(3) = (  -0.500000   0.500000   0.000000 )  

     reciprocal axes: (cart. coord. in units 2 pi/alat)
               b(1) = ( -1.000000 -1.000000  1.000000 )  
               b(2) = (  1.000000  1.000000  1.000000 )  
               b(3) = ( -1.000000  1.000000 -1.000000 )  


     PseudoPot. # 1 for Si read from file:
     ./Si.pz-vbc.UPF
     MD5 check sum: 9f25e6ff280f3123e9b3a84715b2e9c9
     Pseudo is Norm-conserving, Zval =  4.0
     Generated by new atomic code, or converted to UPF format
     Using radial grid of  431 points,  2 beta functions with: 
                l(1) =   0
                l(2) =   1

     atomic species   valence    mass     pseudopotential
        Si             4.00    28.08550     Si( 1.00)

     48 Sym. Ops., with inversion, found



   Cartesian axes

     site n.     atom                  positions (alat units)
         1           Si  tau(   1) = (   0.0000000   0.0000000   0.0000000  )
         2           Si  tau(   2) = (   0.2500000   0.2500000   0.2500000  )

     number of k points=    64
                       cart. coord. in units 2pi/alat
        k(    1) = (   0.0000000   0.0000000   0.0000000), wk =   0.0092593
        k(    2) = (   0.5000000  -0.5000000   0.5000000), wk =   0.0000000
        k(    3) = (  -0.1666667   0.1666667  -0.1666667), wk =   0.0185185
        k(    4) = (   0.3333333  -0.3333333   0.3333333), wk =   0.0000000
        k(    5) = (  -0.3333333   0.3333333  -0.3333333), wk =   0.0185185
        k(    6) = (   0.1666667  -0.1666667   0.1666667), wk =   0.0000000
        k(    7) = (   0.5000000  -0.5000000   0.5000000), wk =   0.0092593
        k(    8) = (   1.0000000  -1.0000000   1.0000000), wk =   0.0000000
        k(    9) = (   0.0000000   0.3333333   0.0000000), wk =   0.0555556
        k(   10) = (   0.5000000  -0.1666667   0.5000000), wk =   0.0000000
        k(   11) = (  -0.1666667   0.5000000  -0.1666667), wk =   0.0555556
        k(   12) = (   0.3333333   0.0000000   0.3333333), wk =   0.0000000
        k(   13) = (   0.6666667  -0.3333333   0.6666667), wk =   0.0555556
        k(   14) = (   1.1666667  -0.8333333   1.1666667), wk =   0.0000000
        k(   15) = (   0.5000000  -0.1666667   0.5000000), wk =   0.0555556
        k(   16) = (   1.0000000  -0.6666667   1.0000000), wk =   0.0000000
        k(   17) = (   0.3333333   0.0000000   0.3333333), wk =   0.0555556
        k(   18) = (   0.8333333  -0.5000000   0.8333333), wk =   0.0000000
        k(   19) = (   0.0000000   0.6666667   0.0000000), wk =   0.0555556
        k(   20) = (   0.5000000   0.1666667   0.5000000), wk =   0.0000000
        k(   21) = (   0.8333333  -0.1666667   0.8333333), wk =   0.0555556
        k(   22) = (   1.3333333  -0.6666667   1.3333333), wk =   0.0000000
        k(   23) = (   0.6666667  -0.0000000   0.6666667), wk =   0.0555556
        k(   24) = (   1.1666667  -0.5000000   1.1666667), wk =   0.0000000
        k(   25) = (   0.0000000  -1.0000000   0.0000000), wk =   0.0277778
        k(   26) = (   0.5000000  -1.5000000   0.5000000), wk =   0.0000000
        k(   27) = (   0.6666667  -0.3333333   1.0000000), wk =   0.1111111
        k(   28) = (   1.1666667  -0.8333333   1.5000000), wk =   0.0000000
        k(   29) = (   0.5000000  -0.1666667   0.8333333), wk =   0.0555556
        k(   30) = (   1.0000000  -0.6666667   1.3333333), wk =   0.0000000
        k(   31) = (  -0.3333333  -1.0000000   0.0000000), wk =   0.1111111
        k(   32) = (   0.1666667  -1.5000000   0.5000000), wk =   0.0000000
        k(   33) = (  -0.1666667  -0.1666667  -0.1666667), wk =   0.0555556
        k(   34) = (   0.3333333  -0.6666667   0.3333333), wk =   0.0000000
        k(   35) = (  -0.3333333  -0.3333333  -0.3333333), wk =   0.0555556
        k(   36) = (   0.1666667  -0.8333333   0.1666667), wk =   0.0000000
        k(   37) = (   0.5000000   0.5000000   0.5000000), wk =   0.0277778
        k(   38) = (   1.0000000   0.0000000   1.0000000), wk =   0.0000000
        k(   39) = (  -0.1666667  -0.5000000  -0.1666667), wk =   0.0555556
        k(   40) = (   0.3333333  -1.0000000   0.3333333), wk =   0.0000000
        k(   41) = (   0.1666667  -0.5000000  -0.1666667), wk =   0.1111111
        k(   42) = (   0.6666667  -1.0000000   0.3333333), wk =   0.0000000
        k(   43) = (   0.6666667   0.3333333   0.6666667), wk =   0.0555556
        k(   44) = (   1.1666667  -0.1666667   1.1666667), wk =   0.0000000
        k(   45) = (  -0.6666667   0.3333333   0.6666667), wk =   0.1111111
        k(   46) = (  -0.1666667  -0.1666667   1.1666667), wk =   0.0000000
        k(   47) = (   0.5000000   0.1666667   0.5000000), wk =   0.0555556
        k(   48) = (   1.0000000  -0.3333333   1.0000000), wk =   0.0000000
        k(   49) = (  -0.5000000   0.1666667   0.5000000), wk =   0.1111111
        k(   50) = (   0.0000000  -0.3333333   1.0000000), wk =   0.0000000
        k(   51) = (  -0.3333333   0.0000000   0.3333333), wk =   0.0555556
        k(   52) = (   0.1666667  -0.5000000   0.8333333), wk =   0.0000000
        k(   53) = (   0.8333333   0.1666667   0.8333333), wk =   0.0555556
        k(   54) = (   1.3333333  -0.3333333   1.3333333), wk =   0.0000000
        k(   55) = (  -0.8333333   0.1666667   0.8333333), wk =   0.1111111
        k(   56) = (  -0.3333333  -0.3333333   1.3333333), wk =   0.0000000
        k(   57) = (  -0.6666667   0.0000000   0.6666667), wk =   0.0555556
        k(   58) = (  -0.1666667  -0.5000000   1.1666667), wk =   0.0000000
        k(   59) = (   0.6666667   0.3333333   1.0000000), wk =   0.1111111
        k(   60) = (   1.1666667  -0.1666667   1.5000000), wk =   0.0000000
        k(   61) = (   0.5000000   0.1666667   0.8333333), wk =   0.1111111
        k(   62) = (   1.0000000  -0.3333333   1.3333333), wk =   0.0000000
        k(   63) = (  -0.8333333   0.1666667   0.5000000), wk =   0.0555556
        k(   64) = (  -0.3333333  -0.3333333   1.0000000), wk =   0.0000000

     Dense  grid:     3143 G-vectors     FFT dimensions: (  24,  24,  24)

     Estimated max dynamical RAM per process >       1.68 MB

     Estimated total dynamical RAM >       6.73 MB

     The potential is recalculated from file :
     ./_ph0/si.save/charge-density

     Starting wfcs are    8 atomic wfcs

     Band Structure Calculation
     Davidson diagonalization with overlap

     ethr =  1.25E-10,  avg # of iterations = 10.8

     total cpu time spent up to now is        0.4 secs

     End of band structure calculation

          k = 0.0000 0.0000 0.0000 (   411 PWs)   bands (ev):

    -5.8114   6.2534   6.2534   6.2534

          k = 0.5000-0.5000 0.5000 (   392 PWs)   bands (ev):

    -3.4168  -0.8208   5.0331   5.0331

          k =-0.1667 0.1667-0.1667 (   387 PWs)   bands (ev):

    -5.4433   3.8569   5.7946   5.7946

          k = 0.3333-0.3333 0.3333 (   401 PWs)   bands (ev):

    -4.4080   0.8586   5.2335   5.2335

          k =-0.3333 0.3333-0.3333 (   401 PWs)   bands (ev):

    -4.4080   0.8586   5.2335   5.2335

          k = 0.1667-0.1667 0.1667 (   387 PWs)   bands (ev):

    -5.4433   3.8569   5.7946   5.7946

          k = 0.5000-0.5000 0.5000 (   392 PWs)   bands (ev):

    -3.4168  -0.8208   5.0331   5.0331

          k = 1.0000-1.0000 1.0000 (   411 PWs)   bands (ev):

    -5.8114   6.2534   6.2534   6.2534

          k = 0.0000 0.3333 0.0000 (   399 PWs)   bands (ev):

    -5.3195   4.2402   5.0306   5.0306

          k = 0.5000-0.1667 0.5000 (   404 PWs)   bands (ev):

    -3.6624   0.1899   3.1426   4.9297

          k =-0.1667 0.5000-0.1667 (   398 PWs)   bands (ev):

    -4.4894   1.7966   4.2250   4.4672

          k = 0.3333 0.0000 0.3333 (   397 PWs)   bands (ev):

    -4.8452   2.5282   3.7766   5.6805

          k = 0.6667-0.3333 0.6667 (   403 PWs)   bands (ev):

    -3.2638  -0.4271   3.4257   4.4383

          k = 1.1667-0.8333 1.1667 (   387 PWs)   bands (ev):

    -5.4433   3.8569   5.7946   5.7946

          k = 0.5000-0.1667 0.5000 (   404 PWs)   bands (ev):

    -3.6624   0.1899   3.1426   4.9297

          k = 1.0000-0.6667 1.0000 (   399 PWs)   bands (ev):

    -5.3195   4.2402   5.0306   5.0306

          k = 0.3333 0.0000 0.3333 (   397 PWs)   bands (ev):

    -4.8452   2.5282   3.7766   5.6805

          k = 0.8333-0.5000 0.8333 (   398 PWs)   bands (ev):

    -4.4894   1.7966   4.2250   4.4672

          k = 0.0000 0.6667 0.0000 (   399 PWs)   bands (ev):

    -3.8750   1.2512   3.7812   3.7812

          k = 0.5000 0.1667 0.5000 (   404 PWs)   bands (ev):

    -3.6624   0.1899   3.1426   4.9297

          k = 0.8333-0.1667 0.8333 (   402 PWs)   bands (ev):

    -2.6875  -0.3264   2.5223   3.6419

          k = 1.3333-0.6667 1.3333 (   401 PWs)   bands (ev):

    -4.4080   0.8586   5.2335   5.2335

          k = 0.6667-0.0000 0.6667 (   403 PWs)   bands (ev):

    -2.4769  -0.5444   1.7145   4.0945

          k = 1.1667-0.5000 1.1667 (   398 PWs)   bands (ev):

    -4.4894   1.7966   4.2250   4.4672

          k = 0.0000-1.0000 0.0000 (   388 PWs)   bands (ev):

    -1.5963  -1.5963   3.3377   3.3377

          k = 0.5000-1.5000 0.5000 (   392 PWs)   bands (ev):

    -3.4168  -0.8208   5.0331   5.0331

          k = 0.6667-0.3333 1.0000 (   407 PWs)   bands (ev):

    -3.4804   0.6002   2.5892   3.8994

          k = 1.1667-0.8333 1.5000 (   398 PWs)   bands (ev):

    -4.4894   1.7966   4.2250   4.4672

          k = 0.5000-0.1667 0.8333 (   400 PWs)   bands (ev):

    -2.4648  -0.6284   2.1429   3.4162

          k = 1.0000-0.6667 1.3333 (   397 PWs)   bands (ev):

    -4.8452   2.5282   3.7766   5.6805

          k =-0.3333-1.0000 0.0000 (   398 PWs)   bands (ev):

    -1.4668  -1.4668   2.5066   2.5066

          k = 0.1667-1.5000 0.5000 (   404 PWs)   bands (ev):

    -3.6624   0.1899   3.1426   4.9297

          k =-0.1667-0.1667-0.1667 (   387 PWs)   bands (ev):

    -5.4433   3.8569   5.7946   5.7946

          k = 0.3333-0.6667 0.3333 (   403 PWs)   bands (ev):

    -3.2638  -0.4271   3.4257   4.4383

          k =-0.3333-0.3333-0.3333 (   401 PWs)   bands (ev):

    -4.4080   0.8586   5.2335   5.2335

          k = 0.1667-0.8333 0.1667 (   402 PWs)   bands (ev):

    -2.6875  -0.3264   2.5223   3.6419

          k = 0.5000 0.5000 0.5000 (   392 PWs)   bands (ev):

    -3.4168  -0.8208   5.0331   5.0331

          k = 1.0000 0.0000 1.0000 (   388 PWs)   bands (ev):

    -1.5963  -1.5963   3.3377   3.3377

          k =-0.1667-0.5000-0.1667 (   398 PWs)   bands (ev):

    -4.4894   1.7966   4.2250   4.4672

          k = 0.3333-1.0000 0.3333 (   403 PWs)   bands (ev):

    -2.4769  -0.5444   1.7145   4.0945

          k = 0.1667-0.5000-0.1667 (   398 PWs)   bands (ev):

    -4.4894   1.7966   4.2250   4.4672

          k = 0.6667-1.0000 0.3333 (   407 PWs)   bands (ev):

    -3.4804   0.6002   2.5892   3.8994

          k = 0.6667 0.3333 0.6667 (   403 PWs)   bands (ev):

    -3.2638  -0.4271   3.4257   4.4383

          k = 1.1667-0.1667 1.1667 (   402 PWs)   bands (ev):

    -2.6875  -0.3264   2.5223   3.6419

          k =-0.6667 0.3333 0.6667 (   403 PWs)   bands (ev):

    -3.2638  -0.4271   3.4257   4.4383

          k =-0.1667-0.1667 1.1667 (   402 PWs)   bands (ev):

    -2.6875  -0.3264   2.5223   3.6419

          k = 0.5000 0.1667 0.5000 (   404 PWs)   bands (ev):

    -3.6624   0.1899   3.1426   4.9297

          k = 1.0000-0.3333 1.0000 (   399 PWs)   bands (ev):

    -3.8750   1.2512   3.7812   3.7812

          k =-0.5000 0.1667 0.5000 (   404 PWs)   bands (ev):

    -3.6624   0.1899   3.1426   4.9297

          k = 0.0000-0.3333 1.0000 (   398 PWs)   bands (ev):

    -1.4668  -1.4668   2.5066   2.5066

          k =-0.3333 0.0000 0.3333 (   397 PWs)   bands (ev):

    -4.8452   2.5282   3.7766   5.6805

          k = 0.1667-0.5000 0.8333 (   400 PWs)   bands (ev):

    -2.4648  -0.6284   2.1429   3.4162

          k = 0.8333 0.1667 0.8333 (   402 PWs)   bands (ev):

    -2.6875  -0.3264   2.5223   3.6419

          k = 1.3333-0.3333 1.3333 (   403 PWs)   bands (ev):

    -3.2638  -0.4271   3.4257   4.4383

          k =-0.8333 0.1667 0.8333 (   402 PWs)   bands (ev):

    -2.6875  -0.3264   2.5223   3.6419

          k =-0.3333-0.3333 1.3333 (   403 PWs)   bands (ev):

    -3.2638  -0.4271   3.4257   4.4383

          k =-0.6667 0.0000 0.6667 (   403 PWs)   bands (ev):

    -2.4769  -0.5444   1.7145   4.0945

          k =-0.1667-0.5000 1.1667 (   400 PWs)   bands (ev):

    -2.4648  -0.6284   2.1429   3.4162

          k = 0.6667 0.3333 1.0000 (   407 PWs)   bands (ev):

    -3.4804   0.6002   2.5892   3.8994

          k = 1.1667-0.1667 1.5000 (   400 PWs)   bands (ev):

    -2.4648  -0.6284   2.1429   3.4162

          k = 0.5000 0.1667 0.8333 (   400 PWs)   bands (ev):

    -2.4648  -0.6284   2.1429   3.4162

          k = 1.0000-0.3333 1.3333 (   407 PWs)   bands (ev):

    -3.4804   0.6002   2.5892   3.8994

          k =-0.8333 0.1667 0.5000 (   400 PWs)   bands (ev):

    -2.4648  -0.6284   2.1429   3.4162

          k =-0.3333-0.3333 1.0000 (   403 PWs)   bands (ev):

    -2.4769  -0.5444   1.7145   4.0945

     highest occupied level (ev):     6.2534

     Writing output data file ./_ph0/si.save/

     --                                                                         

     bravais-lattice index     =            2
     lattice parameter (alat)  =      10.2000  a.u.
     unit-cell volume          =     265.3020 (a.u.)^3
     number of atoms/cell      =            2
     number of atomic types    =            1
     kinetic-energy cut-off    =      20.0000  Ry
     charge density cut-off    =      80.0000  Ry
     convergence threshold     =      1.0E-12
     beta                      =       0.7000
     number of iterations used =            4
     Exchange-correlation= PZ
                           (   1   1   0   0   0   0   0)


     celldm(1)=   10.20000  celldm(2)=    0.00000  celldm(3)=    0.00000
     celldm(4)=    0.00000  celldm(5)=    0.00000  celldm(6)=    0.00000

     crystal axes: (cart. coord. in units of alat)
               a(1) = ( -0.5000  0.0000  0.5000 )  
               a(2) = (  0.0000  0.5000  0.5000 )  
               a(3) = ( -0.5000  0.5000  0.0000 )  

     reciprocal axes: (cart. coord. in units 2 pi/alat)
               b(1) = ( -1.0000 -1.0000  1.0000 )  
               b(2) = (  1.0000  1.0000  1.0000 )  
               b(3) = ( -1.0000  1.0000 -1.0000 )  


     Atoms inside the unit cell: 

     Cartesian axes

     site n.  atom      mass           positions (alat units)
        1     Si  28.0855   tau(    1) = (    0.00000    0.00000    0.00000  )
        2     Si  28.0855   tau(    2) = (    0.25000    0.25000    0.25000  )

     Computing dynamical matrix for 
                    q = (   0.5000000  -0.5000000   0.5000000 )
 
     13 Sym.Ops. (with q -> -q+G )


     G cutoff =  210.8291  (   3143 G-vectors)     FFT grid: ( 24, 24, 24)
     number of k points=    64

     PseudoPot. # 1 for Si read from file:
     ./Si.pz-vbc.UPF
     MD5 check sum: 9f25e6ff280f3123e9b3a84715b2e9c9
     Pseudo is Norm-conserving, Zval =  4.0
     Generated by new atomic code, or converted to UPF format
     Using radial grid of  431 points,  2 beta functions with: 
                l(1) =   0
                l(2) =   1


     Atomic displacements:
     There are    4 irreducible representations

     Representation     1      1 modes -  To be done

     Representation     2      1 modes -  To be done

     Representation     3      2 modes -  To be done

     Representation     4      2 modes -  To be done



     Alpha used in Ewald sum =   0.8000
     PHONON       :      4.41s CPU      7.58s WALL



     Representation #   1 mode #   1

     Self-consistent Calculation

      iter #   1 total cpu time :     7.6 secs   av.it.:   4.9
      thresh= 1.000E-02 alpha_mix =  0.700 |ddv_scf|^2 =  1.363E-05

      iter #   2 total cpu time :     7.7 secs   av.it.:   8.0
      thresh= 3.692E-04 alpha_mix =  0.700 |ddv_scf|^2 =  1.130E-05

      iter #   3 total cpu time :     7.7 secs   av.it.:   7.3
      thresh= 3.362E-04 alpha_mix =  0.700 |ddv_scf|^2 =  1.115E-09

      iter #   4 total cpu time :     7.8 secs   av.it.:   7.8
      thresh= 3.340E-06 alpha_mix =  0.700 |ddv_scf|^2 =  2.302E-11

      iter #   5 total cpu time :     7.8 secs   av.it.:   7.6
      thresh= 4.797E-07 alpha_mix =  0.700 |ddv_scf|^2 =  2.092E-13

     End of self-consistent calculation

     Convergence has been achieved 


     Representation #   2 mode #   2

     Self-consistent Calculation

      iter #   1 total cpu time :     7.9 secs   av.it.:   5.7
      thresh= 1.000E-02 alpha_mix =  0.700 |ddv_scf|^2 =  2.297E-04

      iter #   2 total cpu time :     7.9 secs   av.it.:   8.2
      thresh= 1.516E-03 alpha_mix =  0.700 |ddv_scf|^2 =  7.443E-04

      iter #   3 total cpu time :     8.0 secs   av.it.:   7.2
      thresh= 2.728E-03 alpha_mix =  0.700 |ddv_scf|^2 =  2.151E-08

      iter #   4 total cpu time :     8.0 secs   av.it.:   8.2
      thresh= 1.467E-05 alpha_mix =  0.700 |ddv_scf|^2 =  5.324E-10

      iter #   5 total cpu time :     8.1 secs   av.it.:   8.3
      thresh= 2.307E-06 alpha_mix =  0.700 |ddv_scf|^2 =  4.119E-11

      iter #   6 total cpu time :     8.2 secs   av.it.:   7.7
      thresh= 6.418E-07 alpha_mix =  0.700 |ddv_scf|^2 =  2.817E-14

     End of self-consistent calculation

     Convergence has been achieved 


     Representation #   3 modes #   3   4

     Self-consistent Calculation

      iter #   1 total cpu time :     8.2 secs   av.it.:   5.1
      thresh= 1.000E-02 alpha_mix =  0.700 |ddv_scf|^2 =  6.665E-07

      iter #   2 total cpu time :     8.4 secs   av.it.:   9.3
      thresh= 8.164E-05 alpha_mix =  0.700 |ddv_scf|^2 =  5.625E-08

      iter #   3 total cpu time :     8.5 secs   av.it.:   9.2
      thresh= 2.372E-05 alpha_mix =  0.700 |ddv_scf|^2 =  7.327E-11

      iter #   4 total cpu time :     8.6 secs   av.it.:   8.8
      thresh= 8.560E-07 alpha_mix =  0.700 |ddv_scf|^2 =  2.450E-13

     End of self-consistent calculation

     Convergence has been achieved 


     Representation #   4 modes #   5   6

     Self-consistent Calculation

      iter #   1 total cpu time :     8.7 secs   av.it.:   4.8
      thresh= 1.000E-02 alpha_mix =  0.700 |ddv_scf|^2 =  7.699E-08

      iter #   2 total cpu time :     8.8 secs   av.it.:   9.4
      thresh= 2.775E-05 alpha_mix =  0.700 |ddv_scf|^2 =  1.493E-09

      iter #   3 total cpu time :     8.9 secs   av.it.:   9.3
      thresh= 3.864E-06 alpha_mix =  0.700 |ddv_scf|^2 =  5.098E-11

      iter #   4 total cpu time :     9.1 secs   av.it.:   8.9
      thresh= 7.140E-07 alpha_mix =  0.700 |ddv_scf|^2 =  8.253E-14

     End of self-consistent calculation

     Convergence has been achieved 
 
     Number of q in the star =    4
     List of q in the star:
          1   0.500000000  -0.500000000   0.500000000
          2   0.500000000   0.500000000   0.500000000
          3  -0.500000000   0.500000000   0.500000000
          4   0.500000000   0.500000000  -0.500000000

     Diagonalizing the dynamical matrix

     q = (    0.500000000  -0.500000000   0.500000000 ) 

 **************************************************************************
     freq (    1) =       3.141588 [THz] =     104.792089 [cm-1]
     freq (    2) =       3.141588 [THz] =     104.792089 [cm-1]
     freq (    3) =      11.179490 [THz] =     372.907637 [cm-1]
     freq (    4) =      12.200547 [THz] =     406.966440 [cm-1]
     freq (    5) =      14.547136 [THz] =     485.240211 [cm-1]
     freq (    6) =      14.547136 [THz] =     485.240211 [cm-1]
 **************************************************************************

     Calculation of q =    0.0000000   0.5000000   0.0000000
 
     G-vector sticks info
     --------------------
     sticks:   dense  smooth     PW     G-vecs:    dense   smooth      PW
     Sum         283     283    109                 3143     3143     725
 
     Using Slab Decomposition
 

     Title: 
     --                                                                         


     bravais-lattice index     =            2
     lattice parameter (alat)  =      10.2000  a.u.
     unit-cell volume          =     265.3020 (a.u.)^3
     number of atoms/cell      =            2
     number of atomic types    =            1
     number of electrons       =         8.00
     number of Kohn-Sham states=            4
     kinetic-energy cutoff     =      20.0000  Ry
     charge density cutoff     =      80.0000  Ry
     Exchange-correlation= PZ
                           (   1   1   0   0   0   0   0)

     celldm(1)=  10.200000  celldm(2)=   0.000000  celldm(3)=   0.000000
     celldm(4)=   0.000000  celldm(5)=   0.000000  celldm(6)=   0.000000

     crystal axes: (cart. coord. in units of alat)
               a(1) = (  -0.500000   0.000000   0.500000 )  
               a(2) = (   0.000000   0.500000   0.500000 )  
               a(3) = (  -0.500000   0.500000   0.000000 )  

     reciprocal axes: (cart. coord. in units 2 pi/alat)
               b(1) = ( -1.000000 -1.000000  1.000000 )  
               b(2) = (  1.000000  1.000000  1.000000 )  
               b(3) = ( -1.000000  1.000000 -1.000000 )  


     PseudoPot. # 1 for Si read from file:
     ./Si.pz-vbc.UPF
     MD5 check sum: 9f25e6ff280f3123e9b3a84715b2e9c9
     Pseudo is Norm-conserving, Zval =  4.0
     Generated by new atomic code, or converted to UPF format
     Using radial grid of  431 points,  2 beta functions with: 
                l(1) =   0
                l(2) =   1

     atomic species   valence    mass     pseudopotential
        Si             4.00    28.08550     Si( 1.00)

     48 Sym. Ops., with inversion, found



   Cartesian axes

     site n.     atom                  positions (alat units)
         1           Si  tau(   1) = (   0.0000000   0.0000000   0.0000000  )
         2           Si  tau(   2) = (   0.2500000   0.2500000   0.2500000  )

     number of k points=    96
                       cart. coord. in units 2pi/alat
        k(    1) = (   0.0000000   0.0000000   0.0000000), wk =   0.0092593
        k(    2) = (   0.0000000   0.5000000   0.0000000), wk =   0.0000000
        k(    3) = (  -0.1666667   0.1666667  -0.1666667), wk =   0.0370370
        k(    4) = (  -0.1666667   0.6666667  -0.1666667), wk =   0.0000000
        k(    5) = (  -0.3333333   0.3333333  -0.3333333), wk =   0.0370370
        k(    6) = (  -0.3333333   0.8333333  -0.3333333), wk =   0.0000000
        k(    7) = (   0.5000000  -0.5000000   0.5000000), wk =   0.0370370
        k(    8) = (   0.5000000   0.0000000   0.5000000), wk =   0.0000000
        k(    9) = (   0.0000000   0.3333333   0.0000000), wk =   0.0092593
        k(   10) = (   0.0000000   0.8333333   0.0000000), wk =   0.0000000
        k(   11) = (  -0.1666667   0.5000000  -0.1666667), wk =   0.0370370
        k(   12) = (  -0.1666667   1.0000000  -0.1666667), wk =   0.0000000
        k(   13) = (   0.6666667  -0.3333333   0.6666667), wk =   0.0370370
        k(   14) = (   0.6666667   0.1666667   0.6666667), wk =   0.0000000
        k(   15) = (   0.5000000  -0.1666667   0.5000000), wk =   0.0370370
        k(   16) = (   0.5000000   0.3333333   0.5000000), wk =   0.0000000
        k(   17) = (   0.3333333   0.0000000   0.3333333), wk =   0.0370370
        k(   18) = (   0.3333333   0.5000000   0.3333333), wk =   0.0000000
        k(   19) = (   0.0000000   0.6666667   0.0000000), wk =   0.0092593
        k(   20) = (   0.0000000   1.1666667   0.0000000), wk =   0.0000000
        k(   21) = (   0.8333333  -0.1666667   0.8333333), wk =   0.0370370
        k(   22) = (   0.8333333   0.3333333   0.8333333), wk =   0.0000000
        k(   23) = (   0.6666667  -0.0000000   0.6666667), wk =   0.0370370
        k(   24) = (   0.6666667   0.5000000   0.6666667), wk =   0.0000000
        k(   25) = (   0.0000000  -1.0000000   0.0000000), wk =   0.0092593
        k(   26) = (   0.0000000  -0.5000000   0.0000000), wk =   0.0000000
        k(   27) = (   0.6666667  -0.3333333   1.0000000), wk =   0.0370370
        k(   28) = (   0.6666667   0.1666667   1.0000000), wk =   0.0000000
        k(   29) = (   0.5000000  -0.1666667   0.8333333), wk =   0.0740741
        k(   30) = (   0.5000000   0.3333333   0.8333333), wk =   0.0000000
        k(   31) = (  -0.3333333  -1.0000000   0.0000000), wk =   0.0370370
        k(   32) = (  -0.3333333  -0.5000000   0.0000000), wk =   0.0000000
        k(   33) = (   0.1666667  -0.1666667   0.1666667), wk =   0.0370370
        k(   34) = (   0.1666667   0.3333333   0.1666667), wk =   0.0000000
        k(   35) = (   0.3333333  -0.3333333   0.3333333), wk =   0.0370370
        k(   36) = (   0.3333333   0.1666667   0.3333333), wk =   0.0000000
        k(   37) = (   0.0000000  -0.3333333   0.0000000), wk =   0.0092593
        k(   38) = (   0.0000000   0.1666667   0.0000000), wk =   0.0000000
        k(   39) = (   0.3333333   0.0000000   0.0000000), wk =   0.0370370
        k(   40) = (   0.3333333   0.5000000   0.0000000), wk =   0.0000000
        k(   41) = (   0.1666667  -0.5000000   0.1666667), wk =   0.0370370
        k(   42) = (   0.1666667   0.0000000   0.1666667), wk =   0.0000000
        k(   43) = (   0.5000000  -0.1666667   0.1666667), wk =   0.0740741
        k(   44) = (   0.5000000   0.3333333   0.1666667), wk =   0.0000000
        k(   45) = (   0.5000000   0.1666667   0.1666667), wk =   0.0740741
        k(   46) = (   0.5000000   0.6666667   0.1666667), wk =   0.0000000
        k(   47) = (  -0.6666667   0.3333333  -0.6666667), wk =   0.0370370
        k(   48) = (  -0.6666667   0.8333333  -0.6666667), wk =   0.0000000
        k(   49) = (  -0.3333333   0.6666667  -0.6666667), wk =   0.0740741
        k(   50) = (  -0.3333333   1.1666667  -0.6666667), wk =   0.0000000
        k(   51) = (  -0.3333333  -0.6666667  -0.6666667), wk =   0.0740741
        k(   52) = (  -0.3333333  -0.1666667  -0.6666667), wk =   0.0000000
        k(   53) = (  -0.5000000   0.1666667  -0.5000000), wk =   0.0370370
        k(   54) = (  -0.5000000   0.6666667  -0.5000000), wk =   0.0000000
        k(   55) = (  -0.1666667   0.5000000  -0.5000000), wk =   0.0740741
        k(   56) = (  -0.1666667   1.0000000  -0.5000000), wk =   0.0000000
        k(   57) = (  -0.1666667  -0.5000000  -0.5000000), wk =   0.0740741
        k(   58) = (  -0.1666667   0.0000000  -0.5000000), wk =   0.0000000
        k(   59) = (   0.0000000   0.3333333  -0.3333333), wk =   0.0370370
        k(   60) = (   0.0000000   0.8333333  -0.3333333), wk =   0.0000000
        k(   61) = (   0.0000000  -0.3333333  -0.3333333), wk =   0.0370370
        k(   62) = (   0.0000000   0.1666667  -0.3333333), wk =   0.0000000
        k(   63) = (   0.0000000  -0.6666667   0.0000000), wk =   0.0092593
        k(   64) = (   0.0000000  -0.1666667   0.0000000), wk =   0.0000000
        k(   65) = (   0.6666667   0.0000000   0.0000000), wk =   0.0370370
        k(   66) = (   0.6666667   0.5000000   0.0000000), wk =   0.0000000
        k(   67) = (  -0.8333333   0.1666667  -0.8333333), wk =   0.0370370
        k(   68) = (  -0.8333333   0.6666667  -0.8333333), wk =   0.0000000
        k(   69) = (  -0.1666667   0.8333333  -0.8333333), wk =   0.0740741
        k(   70) = (  -0.1666667   1.3333333  -0.8333333), wk =   0.0000000
        k(   71) = (  -0.1666667  -0.8333333  -0.8333333), wk =   0.0740741
        k(   72) = (  -0.1666667  -0.3333333  -0.8333333), wk =   0.0000000
        k(   73) = (   0.0000000   0.6666667  -0.6666667), wk =   0.0370370
        k(   74) = (   0.0000000   1.1666667  -0.6666667), wk =   0.0000000
        k(   75) = (   0.0000000  -0.6666667  -0.6666667), wk =   0.0370370
        k(   76) = (   0.0000000  -0.1666667  -0.6666667), wk =   0.0000000
        k(   77) = (  -1.0000000   0.0000000   0.0000000), wk =   0.0185185
        k(   78) = (  -1.0000000   0.5000000   0.0000000), wk =   0.0000000
        k(   79) = (  -1.0000000   0.3333333  -0.6666667), wk =   0.0370370
        k(   80) = (  -1.0000000   0.8333333  -0.6666667), wk =   0.0000000
        k(   81) = (  -0.3333333   0.6666667  -1.0000000), wk =   0.0370370
        k(   82) = (  -0.3333333   1.1666667  -1.0000000), wk =   0.0000000
        k(   83) = (  -0.3333333   1.0000000  -0.6666667), wk =   0.0740741
        k(   84) = (  -0.3333333   1.5000000  -0.6666667), wk =   0.0000000
        k(   85) = (   1.0000000  -0.6666667   0.3333333), wk =   0.0370370
        k(   86) = (   1.0000000  -0.1666667   0.3333333), wk =   0.0000000
        k(   87) = (  -0.8333333   0.1666667  -0.5000000), wk =   0.0740741
        k(   88) = (  -0.8333333   0.6666667  -0.5000000), wk =   0.0000000
        k(   89) = (  -0.1666667   0.5000000  -0.8333333), wk =   0.0740741
        k(   90) = (  -0.1666667   1.0000000  -0.8333333), wk =   0.0000000
        k(   91) = (  -1.0000000  -0.3333333   0.0000000), wk =   0.0185185
        k(   92) = (  -1.0000000   0.1666667   0.0000000), wk =   0.0000000
        k(   93) = (  -1.0000000   0.0000000   0.3333333), wk =   0.0370370
        k(   94) = (  -1.0000000   0.5000000   0.3333333), wk =   0.0000000
        k(   95) = (   0.0000000   0.3333333   1.0000000), wk =   0.0185185
        k(   96) = (   0.0000000   0.8333333   1.0000000), wk =   0.0000000

     Dense  grid:     3143 G-vectors     FFT dimensions: (  24,  24,  24)

     Estimated max dynamical RAM per process >       1.68 MB

     Estimated total dynamical RAM >       6.72 MB

     The potential is recalculated from file :
     ./_ph0/si.save/charge-density

     Starting wfcs are    8 atomic wfcs

     Band Structure Calculation
     Davidson diagonalization with overlap

     ethr =  1.25E-10,  avg # of iterations = 11.2

     total cpu time spent up to now is        0.6 secs

     End of band structure calculation

          k = 0.0000 0.0000 0.0000 (   411 PWs)   bands (ev):

    -5.8114   6.2534   6.2534   6.2534

          k = 0.0000 0.5000 0.0000 (   415 PWs)   bands (ev):

    -4.7130   2.7570   4.3183   4.3183

          k =-0.1667 0.1667-0.1667 (   387 PWs)   bands (ev):

    -5.4433   3.8569   5.7946   5.7946

          k =-0.1667 0.6667-0.1667 (   402 PWs)   bands (ev):

    -3.6803   0.7844   3.1942   3.9592

          k =-0.3333 0.3333-0.3333 (   401 PWs)   bands (ev):

    -4.4080   0.8586   5.2335   5.2335

          k =-0.3333 0.8333-0.3333 (   401 PWs)   bands (ev):

    -2.7000  -0.5990   2.2631   4.1835

          k = 0.5000-0.5000 0.5000 (   392 PWs)   bands (ev):

    -3.4168  -0.8208   5.0331   5.0331

          k = 0.5000 0.0000 0.5000 (   407 PWs)   bands (ev):

    -3.7288   0.7535   2.4002   4.8975

          k = 0.0000 0.3333 0.0000 (   399 PWs)   bands (ev):

    -5.3195   4.2402   5.0306   5.0306

          k = 0.0000 0.8333 0.0000 (   404 PWs)   bands (ev):

    -2.8288  -0.2212   3.4490   3.4490

          k =-0.1667 0.5000-0.1667 (   398 PWs)   bands (ev):

    -4.4894   1.7966   4.2250   4.4672

          k =-0.1667 1.0000-0.1667 (   405 PWs)   bands (ev):

    -1.7302  -1.3326   2.2999   3.5339

          k = 0.6667-0.3333 0.6667 (   403 PWs)   bands (ev):

    -3.2638  -0.4271   3.4257   4.4383

          k = 0.6667 0.1667 0.6667 (   401 PWs)   bands (ev):

    -2.7000  -0.5990   2.2631   4.1835

          k = 0.5000-0.1667 0.5000 (   404 PWs)   bands (ev):

    -3.6624   0.1899   3.1426   4.9297

          k = 0.5000 0.3333 0.5000 (   402 PWs)   bands (ev):

    -3.5094  -0.5259   4.3435   4.9966

          k = 0.3333 0.0000 0.3333 (   397 PWs)   bands (ev):

    -4.8452   2.5282   3.7766   5.6805

          k = 0.3333 0.5000 0.3333 (   406 PWs)   bands (ev):

    -3.8938   0.0837   4.6521   4.8163

          k = 0.0000 0.6667 0.0000 (   399 PWs)   bands (ev):

    -3.8750   1.2512   3.7812   3.7812

          k = 0.0000 1.1667 0.0000 (   404 PWs)   bands (ev):

    -2.8288  -0.2212   3.4490   3.4490

          k = 0.8333-0.1667 0.8333 (   402 PWs)   bands (ev):

    -2.6875  -0.3264   2.5223   3.6419

          k = 0.8333 0.3333 0.8333 (   402 PWs)   bands (ev):

    -3.6803   0.7844   3.1942   3.9592

          k = 0.6667-0.0000 0.6667 (   403 PWs)   bands (ev):

    -2.4769  -0.5444   1.7145   4.0945

          k = 0.6667 0.5000 0.6667 (   406 PWs)   bands (ev):

    -3.8938   0.0837   4.6521   4.8163

          k = 0.0000-1.0000 0.0000 (   388 PWs)   bands (ev):

    -1.5963  -1.5963   3.3377   3.3377

          k = 0.0000-0.5000 0.0000 (   415 PWs)   bands (ev):

    -4.7130   2.7570   4.3183   4.3183

          k = 0.6667-0.3333 1.0000 (   407 PWs)   bands (ev):

    -3.4804   0.6002   2.5892   3.8994

          k = 0.6667 0.1667 1.0000 (   400 PWs)   bands (ev):

    -2.5252  -0.3999   2.3827   3.0159

          k = 0.5000-0.1667 0.8333 (   400 PWs)   bands (ev):

    -2.4648  -0.6284   2.1429   3.4162

          k = 0.5000 0.3333 0.8333 (   402 PWs)   bands (ev):

    -3.0400  -0.3492   2.5873   4.2339

          k =-0.3333-1.0000 0.0000 (   398 PWs)   bands (ev):

    -1.4668  -1.4668   2.5066   2.5066

          k =-0.3333-0.5000 0.0000 (   400 PWs)   bands (ev):

    -4.2652   1.5548   3.0732   4.9542

          k = 0.1667-0.1667 0.1667 (   387 PWs)   bands (ev):

    -5.4433   3.8569   5.7946   5.7946

          k = 0.1667 0.3333 0.1667 (   390 PWs)   bands (ev):

    -5.0822   2.8017   5.1206   5.3150

          k = 0.3333-0.3333 0.3333 (   401 PWs)   bands (ev):

    -4.4080   0.8586   5.2335   5.2335

          k = 0.3333 0.1667 0.3333 (   396 PWs)   bands (ev):

    -4.7341   1.8134   4.5284   5.5595

          k = 0.0000-0.3333 0.0000 (   399 PWs)   bands (ev):

    -5.3195   4.2402   5.0306   5.0306

          k = 0.0000 0.1667 0.0000 (   399 PWs)   bands (ev):

    -5.6876   5.5754   5.8117   5.8117

          k = 0.3333 0.0000 0.0000 (   399 PWs)   bands (ev):

    -5.3195   4.2402   5.0306   5.0306

          k = 0.3333 0.5000 0.0000 (   400 PWs)   bands (ev):

    -4.2652   1.5548   3.0732   4.9542

          k = 0.1667-0.5000 0.1667 (   398 PWs)   bands (ev):

    -4.4894   1.7966   4.2250   4.4672

          k = 0.1667 0.0000 0.1667 (   385 PWs)   bands (ev):

    -5.5643   4.6663   5.3658   6.1373

          k = 0.5000-0.1667 0.1667 (   398 PWs)   bands (ev):

    -4.4894   1.7966   4.2250   4.4672

          k = 0.5000 0.3333 0.1667 (   399 PWs)   bands (ev):

    -4.1678   0.9385   3.7694   4.9181

          k = 0.5000 0.1667 0.1667 (   398 PWs)   bands (ev):

    -4.4894   1.7966   4.2250   4.4672

          k = 0.5000 0.6667 0.1667 (   402 PWs)   bands (ev):

    -3.0400  -0.3492   2.5873   4.2339

          k =-0.6667 0.3333-0.6667 (   403 PWs)   bands (ev):

    -3.2638  -0.4271   3.4257   4.4383

          k =-0.6667 0.8333-0.6667 (   396 PWs)   bands (ev):

    -4.7341   1.8134   4.5284   5.5595

          k =-0.3333 0.6667-0.6667 (   403 PWs)   bands (ev):

    -3.2638  -0.4271   3.4257   4.4383

          k =-0.3333 1.1667-0.6667 (   405 PWs)   bands (ev):

    -3.4147   0.1878   2.9608   4.0745

          k =-0.3333-0.6667-0.6667 (   403 PWs)   bands (ev):

    -3.2638  -0.4271   3.4257   4.4383

          k =-0.3333-0.1667-0.6667 (   405 PWs)   bands (ev):

    -3.4147   0.1878   2.9608   4.0745

          k =-0.5000 0.1667-0.5000 (   404 PWs)   bands (ev):

    -3.6624   0.1899   3.1426   4.9297

          k =-0.5000 0.6667-0.5000 (   402 PWs)   bands (ev):

    -3.5094  -0.5259   4.3435   4.9966

          k =-0.1667 0.5000-0.5000 (   404 PWs)   bands (ev):

    -3.6624   0.1899   3.1426   4.9297

          k =-0.1667 1.0000-0.5000 (   401 PWs)   bands (ev):

    -2.2221  -0.6837   1.9242   3.0894

          k =-0.1667-0.5000-0.5000 (   404 PWs)   bands (ev):

    -3.6624   0.1899   3.1426   4.9297

          k =-0.1667 0.0000-0.5000 (   403 PWs)   bands (ev):

    -4.5991   2.3391   3.8640   4.5926

          k = 0.0000 0.3333-0.3333 (   397 PWs)   bands (ev):

    -4.8452   2.5282   3.7766   5.6805

          k = 0.0000 0.8333-0.3333 (   400 PWs)   bands (ev):

    -2.5252  -0.3999   2.3827   3.0159

          k = 0.0000-0.3333-0.3333 (   397 PWs)   bands (ev):

    -4.8452   2.5282   3.7766   5.6805

          k = 0.0000 0.1667-0.3333 (   387 PWs)   bands (ev):

    -5.1994   3.5291   4.5759   5.5389

          k = 0.0000-0.6667 0.0000 (   399 PWs)   bands (ev):

    -3.8750   1.2512   3.7812   3.7812

          k = 0.0000-0.1667 0.0000 (   399 PWs)   bands (ev):

    -5.6876   5.5754   5.8117   5.8117

          k = 0.6667 0.0000 0.0000 (   399 PWs)   bands (ev):

    -3.8750   1.2512   3.7812   3.7812

          k = 0.6667 0.5000 0.0000 (   401 PWs)   bands (ev):

    -3.0247   0.0153   1.9886   4.1259

          k =-0.8333 0.1667-0.8333 (   402 PWs)   bands (ev):

    -2.6875  -0.3264   2.5223   3.6419

          k =-0.8333 0.6667-0.8333 (   390 PWs)   bands (ev):

    -5.0822   2.8017   5.1206   5.3150

          k =-0.1667 0.8333-0.8333 (   402 PWs)   bands (ev):

    -2.6875  -0.3264   2.5223   3.6419

          k =-0.1667 1.3333-0.8333 (   401 PWs)   bands (ev):

    -2.5479  -0.5117   2.2004   3.5663

          k =-0.1667-0.8333-0.8333 (   402 PWs)   bands (ev):

    -2.6875  -0.3264   2.5223   3.6419

          k =-0.1667-0.3333-0.8333 (   401 PWs)   bands (ev):

    -2.5479  -0.5117   2.2004   3.5663

          k = 0.0000 0.6667-0.6667 (   403 PWs)   bands (ev):

    -2.4769  -0.5444   1.7145   4.0945

          k = 0.0000 1.1667-0.6667 (   405 PWs)   bands (ev):

    -1.9365  -1.0286   1.8791   3.4096

          k = 0.0000-0.6667-0.6667 (   403 PWs)   bands (ev):

    -2.4769  -0.5444   1.7145   4.0945

          k = 0.0000-0.1667-0.6667 (   407 PWs)   bands (ev):

    -3.7752   1.0702   3.3427   3.7826

          k =-1.0000 0.0000 0.0000 (   388 PWs)   bands (ev):

    -1.5963  -1.5963   3.3377   3.3377

          k =-1.0000 0.5000 0.0000 (   396 PWs)   bands (ev):

    -1.4178  -1.4178   2.2889   2.2889

          k =-1.0000 0.3333-0.6667 (   407 PWs)   bands (ev):

    -3.4804   0.6002   2.5892   3.8994

          k =-1.0000 0.8333-0.6667 (   387 PWs)   bands (ev):

    -5.1994   3.5291   4.5759   5.5389

          k =-0.3333 0.6667-1.0000 (   407 PWs)   bands (ev):

    -3.4804   0.6002   2.5892   3.8994

          k =-0.3333 1.1667-1.0000 (   407 PWs)   bands (ev):

    -3.7752   1.0702   3.3427   3.7826

          k =-0.3333 1.0000-0.6667 (   407 PWs)   bands (ev):

    -3.4804   0.6002   2.5892   3.8994

          k =-0.3333 1.5000-0.6667 (   396 PWs)   bands (ev):

    -3.1739  -0.6952   3.6109   4.5689

          k = 1.0000-0.6667 0.3333 (   407 PWs)   bands (ev):

    -3.4804   0.6002   2.5892   3.8994

          k = 1.0000-0.1667 0.3333 (   405 PWs)   bands (ev):

    -1.9365  -1.0286   1.8791   3.4096

          k =-0.8333 0.1667-0.5000 (   400 PWs)   bands (ev):

    -2.4648  -0.6284   2.1429   3.4162

          k =-0.8333 0.6667-0.5000 (   399 PWs)   bands (ev):

    -4.1678   0.9385   3.7694   4.9181

          k =-0.1667 0.5000-0.8333 (   400 PWs)   bands (ev):

    -2.4648  -0.6284   2.1429   3.4162

          k =-0.1667 1.0000-0.8333 (   406 PWs)   bands (ev):

    -2.7487  -0.2560   3.0517   3.2525

          k =-1.0000-0.3333 0.0000 (   398 PWs)   bands (ev):

    -1.4668  -1.4668   2.5066   2.5066

          k =-1.0000 0.1667 0.0000 (   406 PWs)   bands (ev):

    -1.5567  -1.5567   3.0148   3.0148

          k =-1.0000 0.0000 0.3333 (   398 PWs)   bands (ev):

    -1.4668  -1.4668   2.5066   2.5066

          k =-1.0000 0.5000 0.3333 (   401 PWs)   bands (ev):

    -3.0247   0.0153   1.9886   4.1259

          k = 0.0000 0.3333 1.0000 (   398 PWs)   bands (ev):

    -1.4668  -1.4668   2.5066   2.5066

          k = 0.0000 0.8333 1.0000 (   406 PWs)   bands (ev):

    -1.5567  -1.5567   3.0148   3.0148

     highest occupied level (ev):     6.2534

     Writing output data file ./_ph0/si.save/

     --                                                                         

     bravais-lattice index     =            2
     lattice parameter (alat)  =      10.2000  a.u.
     unit-cell volume          =     265.3020 (a.u.)^3
     number of atoms/cell      =            2
     number of atomic types    =            1
     kinetic-energy cut-off    =      20.0000  Ry
     charge density cut-off    =      80.0000  Ry
     convergence threshold     =      1.0E-12
     beta                      =       0.7000
     number of iterations used =            4
     Exchange-correlation= PZ
                           (   1   1   0   0   0   0   0)


     celldm(1)=   10.20000  celldm(2)=    0.00000  celldm(3)=    0.00000
     celldm(4)=    0.00000  celldm(5)=    0.00000  celldm(6)=    0.00000

     crystal axes: (cart. coord. in units of alat)
               a(1) = ( -0.5000  0.0000  0.5000 )  
               a(2) = (  0.0000  0.5000  0.5000 )  
               a(3) = ( -0.5000  0.5000  0.0000 )  

     reciprocal axes: (cart. coord. in units 2 pi/alat)
               b(1) = ( -1.0000 -1.0000  1.0000 )  
               b(2) = (  1.0000  1.0000  1.0000 )  
               b(3) = ( -1.0000  1.0000 -1.0000 )  


     Atoms inside the unit cell: 

     Cartesian axes

     site n.  atom      mass           positions (alat units)
        1     Si  28.0855   tau(    1) = (    0.00000    0.00000    0.00000  )
        2     Si  28.0855   tau(    2) = (    0.25000    0.25000    0.25000  )

     Computing dynamical matrix for 
                    q = (   0.0000000   0.5000000   0.0000000 )
 
      8 Sym.Ops. (no q -> -q+G )


     G cutoff =  210.8291  (   3143 G-vectors)     FFT grid: ( 24, 24, 24)
     number of k points=    96

     PseudoPot. # 1 for Si read from file:
     ./Si.pz-vbc.UPF
     MD5 check sum: 9f25e6ff280f3123e9b3a84715b2e9c9
     Pseudo is Norm-conserving, Zval =  4.0
     Generated by new atomic code, or converted to UPF format
     Using radial grid of  431 points,  2 beta functions with: 
                l(1) =   0
                l(2) =   1

     Mode symmetry, C_4v (4mm)  point group:


     Atomic displacements:
     There are    4 irreducible representations

     Representation     1      1 modes -  To be done

     Representation     2      1 modes -  To be done

     Representation     3      2 modes -  To be done

     Representation     4      2 modes -  To be done



     Alpha used in Ewald sum =   0.8000
     PHONON       :      5.93s CPU      9.36s WALL



     Representation #   1 mode #   1

     Self-consistent Calculation

      iter #   1 total cpu time :     9.4 secs   av.it.:   5.8
      thresh= 1.000E-02 alpha_mix =  0.700 |ddv_scf|^2 =  1.831E-03

      iter #   2 total cpu time :     9.5 secs   av.it.:   7.6
      thresh= 4.279E-03 alpha_mix =  0.700 |ddv_scf|^2 =  2.441E-02

      iter #   3 total cpu time :     9.5 secs   av.it.:   6.5
      thresh= 1.000E-02 alpha_mix =  0.700 |ddv_scf|^2 =  1.629E-08

      iter #   4 total cpu time :     9.6 secs   av.it.:   8.6
      thresh= 1.276E-05 alpha_mix =  0.700 |ddv_scf|^2 =  1.033E-09

      iter #   5 total cpu time :     9.7 secs   av.it.:   8.1
      thresh= 3.214E-06 alpha_mix =  0.700 |ddv_scf|^2 =  1.950E-11

      iter #   6 total cpu time :     9.8 secs   av.it.:   7.6
      thresh= 4.416E-07 alpha_mix =  0.700 |ddv_scf|^2 =  5.023E-14

     End of self-consistent calculation

     Convergence has been achieved 


     Representation #   2 mode #   2

     Self-consistent Calculation

      iter #   1 total cpu time :     9.9 secs   av.it.:   5.0
      thresh= 1.000E-02 alpha_mix =  0.700 |ddv_scf|^2 =  3.232E-06

      iter #   2 total cpu time :    10.0 secs   av.it.:   8.3
      thresh= 1.798E-04 alpha_mix =  0.700 |ddv_scf|^2 =  7.250E-07

      iter #   3 total cpu time :    10.1 secs   av.it.:   8.1
      thresh= 8.515E-05 alpha_mix =  0.700 |ddv_scf|^2 =  3.008E-09

      iter #   4 total cpu time :    10.1 secs   av.it.:   8.3
      thresh= 5.485E-06 alpha_mix =  0.700 |ddv_scf|^2 =  6.821E-11

      iter #   5 total cpu time :    10.2 secs   av.it.:   7.8
      thresh= 8.259E-07 alpha_mix =  0.700 |ddv_scf|^2 =  1.111E-12

      iter #   6 total cpu time :    10.3 secs   av.it.:   7.8
      thresh= 1.054E-07 alpha_mix =  0.700 |ddv_scf|^2 =  7.436E-16

     End of self-consistent calculation

     Convergence has been achieved 


     Representation #   3 modes #   3   4

     Self-consistent Calculation

      iter #   1 total cpu time :    10.4 secs   av.it.:   5.2
      thresh= 1.000E-02 alpha_mix =  0.700 |ddv_scf|^2 =  7.277E-07

      iter #   2 total cpu time :    10.5 secs   av.it.:   9.4
      thresh= 8.531E-05 alpha_mix =  0.700 |ddv_scf|^2 =  1.124E-07

      iter #   3 total cpu time :    10.7 secs   av.it.:   9.1
      thresh= 3.353E-05 alpha_mix =  0.700 |ddv_scf|^2 =  9.735E-11

      iter #   4 total cpu time :    10.8 secs   av.it.:   9.0
      thresh= 9.867E-07 alpha_mix =  0.700 |ddv_scf|^2 =  5.269E-12

      iter #   5 total cpu time :    11.0 secs   av.it.:   9.0
      thresh= 2.295E-07 alpha_mix =  0.700 |ddv_scf|^2 =  5.349E-15

     End of self-consistent calculation

     Convergence has been achieved 


     Representation #   4 modes #   5   6

     Self-consistent Calculation

      iter #   1 total cpu time :    11.1 secs   av.it.:   5.1
      thresh= 1.000E-02 alpha_mix =  0.700 |ddv_scf|^2 =  4.805E-07

      iter #   2 total cpu time :    11.3 secs   av.it.:   9.4
      thresh= 6.932E-05 alpha_mix =  0.700 |ddv_scf|^2 =  7.231E-08

      iter #   3 total cpu time :    11.4 secs   av.it.:   9.1
      thresh= 2.689E-05 alpha_mix =  0.700 |ddv_scf|^2 =  1.032E-10

      iter #   4 total cpu time :    11.5 secs   av.it.:   9.0
      thresh= 1.016E-06 alpha_mix =  0.700 |ddv_scf|^2 =  5.933E-12

      iter #   5 total cpu time :    11.7 secs   av.it.:   9.0
      thresh= 2.436E-07 alpha_mix =  0.700 |ddv_scf|^2 =  6.143E-15

     End of self-consistent calculation

     Convergence has been achieved 
 
     Number of q in the star =    6
     List of q in the star:
          1   0.000000000   0.500000000   0.000000000
          2   0.000000000  -0.500000000   0.000000000
          3   0.500000000   0.000000000   0.000000000
          4   0.000000000   0.000000000   0.500000000
          5   0.000000000   0.000000000  -0.500000000
          6  -0.500000000   0.000000000   0.000000000

     Diagonalizing the dynamical matrix

     q = (    0.000000000   0.500000000   0.000000000 ) 

 **************************************************************************
     freq (    1) =       3.787564 [THz] =     126.339532 [cm-1]
     freq (    2) =       3.787564 [THz] =     126.339532 [cm-1]
     freq (    3) =       7.199771 [THz] =     240.158511 [cm-1]
     freq (    4) =      14.074510 [THz] =     469.475114 [cm-1]
     freq (    5) =      14.074510 [THz] =     469.475114 [cm-1]
     freq (    6) =      14.614989 [THz] =     487.503560 [cm-1]
 **************************************************************************

     Mode symmetry, C_4v (4mm)  point group:

     freq (   1-   2) =        126.3  [cm-1]   --> E    G_5 D_5       
     freq (   3-   3) =        240.2  [cm-1]   --> A_1  G_1 D_1       
     freq (   4-   5) =        469.5  [cm-1]   --> E    G_5 D_5       
     freq (   6-   6) =        487.5  [cm-1]   --> B_2  G_4 D_2'      

     Calculation of q =    0.7500000  -0.2500000   0.7500000
 
     G-vector sticks info
     --------------------
     sticks:   dense  smooth     PW     G-vecs:    dense   smooth      PW
     Sum         283     283    121                 3143     3143     941
 
     Using Slab Decomposition
 

     Title: 
     --                                                                         


     bravais-lattice index     =            2
     lattice parameter (alat)  =      10.2000  a.u.
     unit-cell volume          =     265.3020 (a.u.)^3
     number of atoms/cell      =            2
     number of atomic types    =            1
     number of electrons       =         8.00
     number of Kohn-Sham states=            4
     kinetic-energy cutoff     =      20.0000  Ry
     charge density cutoff     =      80.0000  Ry
     Exchange-correlation= PZ
                           (   1   1   0   0   0   0   0)

     celldm(1)=  10.200000  celldm(2)=   0.000000  celldm(3)=   0.000000
     celldm(4)=   0.000000  celldm(5)=   0.000000  celldm(6)=   0.000000

     crystal axes: (cart. coord. in units of alat)
               a(1) = (  -0.500000   0.000000   0.500000 )  
               a(2) = (   0.000000   0.500000   0.500000 )  
               a(3) = (  -0.500000   0.500000   0.000000 )  

     reciprocal axes: (cart. coord. in units 2 pi/alat)
               b(1) = ( -1.000000 -1.000000  1.000000 )  
               b(2) = (  1.000000  1.000000  1.000000 )  
               b(3) = ( -1.000000  1.000000 -1.000000 )  


     PseudoPot. # 1 for Si read from file:
     ./Si.pz-vbc.UPF
     MD5 check sum: 9f25e6ff280f3123e9b3a84715b2e9c9
     Pseudo is Norm-conserving, Zval =  4.0
     Generated by new atomic code, or converted to UPF format
     Using radial grid of  431 points,  2 beta functions with: 
                l(1) =   0
                l(2) =   1

     atomic species   valence    mass     pseudopotential
        Si             4.00    28.08550     Si( 1.00)

     48 Sym. Ops., with inversion, found



   Cartesian axes

     site n.     atom                  positions (alat units)
         1           Si  tau(   1) = (   0.0000000   0.0000000   0.0000000  )
         2           Si  tau(   2) = (   0.2500000   0.2500000   0.2500000  )

     number of k points=   252

     Number of k-points >= 100: set verbosity='high' to print them.

     Dense  grid:     3143 G-vectors     FFT dimensions: (  24,  24,  24)

     Estimated max dynamical RAM per process >       1.68 MB

     Estimated total dynamical RAM >       6.73 MB

     The potential is recalculated from file :
     ./_ph0/si.save/charge-density

     Starting wfcs are    8 atomic wfcs

     Band Structure Calculation
     Davidson diagonalization with overlap

     ethr =  1.25E-10,  avg # of iterations = 11.3

     total cpu time spent up to now is        1.1 secs

     End of band structure calculation

     Number of k-points >= 100: set verbosity='high' to print the bands.

     highest occupied level (ev):     6.2534

     Writing output data file ./_ph0/si.save/

     --                                                                         

     bravais-lattice index     =            2
     lattice parameter (alat)  =      10.2000  a.u.
     unit-cell volume          =     265.3020 (a.u.)^3
     number of atoms/cell      =            2
     number of atomic types    =            1
     kinetic-energy cut-off    =      20.0000  Ry
     charge density cut-off    =      80.0000  Ry
     convergence threshold     =      1.0E-12
     beta                      =       0.7000
     number of iterations used =            4
     Exchange-correlation= PZ
                           (   1   1   0   0   0   0   0)


     celldm(1)=   10.20000  celldm(2)=    0.00000  celldm(3)=    0.00000
     celldm(4)=    0.00000  celldm(5)=    0.00000  celldm(6)=    0.00000

     crystal axes: (cart. coord. in units of alat)
               a(1) = ( -0.5000  0.0000  0.5000 )  
               a(2) = (  0.0000  0.5000  0.5000 )  
               a(3) = ( -0.5000  0.5000  0.0000 )  

     reciprocal axes: (cart. coord. in units 2 pi/alat)
               b(1) = ( -1.0000 -1.0000  1.0000 )  
               b(2) = (  1.0000  1.0000  1.0000 )  
               b(3) = ( -1.0000  1.0000 -1.0000 )  


     Atoms inside the unit cell: 

     Cartesian axes

     site n.  atom      mass           positions (alat units)
        1     Si  28.0855   tau(    1) = (    0.00000    0.00000    0.00000  )
        2     Si  28.0855   tau(    2) = (    0.25000    0.25000    0.25000  )

     Computing dynamical matrix for 
                    q = (   0.7500000  -0.2500000   0.7500000 )
 
      2 Sym.Ops. (no q -> -q+G )


     G cutoff =  210.8291  (   3143 G-vectors)     FFT grid: ( 24, 24, 24)
     number of k points=   252

     PseudoPot. # 1 for Si read from file:
     ./Si.pz-vbc.UPF
     MD5 check sum: 9f25e6ff280f3123e9b3a84715b2e9c9
     Pseudo is Norm-conserving, Zval =  4.0
     Generated by new atomic code, or converted to UPF format
     Using radial grid of  431 points,  2 beta functions with: 
                l(1) =   0
                l(2) =   1

     Mode symmetry, C_s (m)     point group:


     Atomic displacements:
     There are    6 irreducible representations

     Representation     1      1 modes -  To be done

     Representation     2      1 modes -  To be done

     Representation     3      1 modes -  To be done

     Representation     4      1 modes -  To be done

     Representation     5      1 modes -  To be done

     Representation     6      1 modes -  To be done



     Alpha used in Ewald sum =   0.8000
     PHONON       :      8.44s CPU     12.27s WALL



     Representation #   1 mode #   1

     Self-consistent Calculation

      iter #   1 total cpu time :    12.4 secs   av.it.:   5.7
      thresh= 1.000E-02 alpha_mix =  0.700 |ddv_scf|^2 =  7.941E-05

      iter #   2 total cpu time :    12.6 secs   av.it.:   8.8
      thresh= 8.911E-04 alpha_mix =  0.700 |ddv_scf|^2 =  2.301E-04

      iter #   3 total cpu time :    12.8 secs   av.it.:   7.6
      thresh= 1.517E-03 alpha_mix =  0.700 |ddv_scf|^2 =  8.872E-07

      iter #   4 total cpu time :    12.9 secs   av.it.:   8.1
      thresh= 9.419E-05 alpha_mix =  0.700 |ddv_scf|^2 =  3.617E-09

      iter #   5 total cpu time :    13.1 secs   av.it.:   8.7
      thresh= 6.014E-06 alpha_mix =  0.700 |ddv_scf|^2 =  3.562E-10

      iter #   6 total cpu time :    13.3 secs   av.it.:   8.6
      thresh= 1.887E-06 alpha_mix =  0.700 |ddv_scf|^2 =  1.546E-11

      iter #   7 total cpu time :    13.5 secs   av.it.:   8.6
      thresh= 3.932E-07 alpha_mix =  0.700 |ddv_scf|^2 =  7.189E-13

     End of self-consistent calculation

     Convergence has been achieved 


     Representation #   2 mode #   2

     Self-consistent Calculation

      iter #   1 total cpu time :    13.7 secs   av.it.:   5.7
      thresh= 1.000E-02 alpha_mix =  0.700 |ddv_scf|^2 =  4.845E-05

      iter #   2 total cpu time :    13.8 secs   av.it.:   8.8
      thresh= 6.961E-04 alpha_mix =  0.700 |ddv_scf|^2 =  1.363E-04

      iter #   3 total cpu time :    14.0 secs   av.it.:   7.6
      thresh= 1.168E-03 alpha_mix =  0.700 |ddv_scf|^2 =  4.908E-07

      iter #   4 total cpu time :    14.2 secs   av.it.:   8.4
      thresh= 7.006E-05 alpha_mix =  0.700 |ddv_scf|^2 =  3.656E-09

      iter #   5 total cpu time :    14.4 secs   av.it.:   8.5
      thresh= 6.046E-06 alpha_mix =  0.700 |ddv_scf|^2 =  5.845E-10

      iter #   6 total cpu time :    14.5 secs   av.it.:   8.4
      thresh= 2.418E-06 alpha_mix =  0.700 |ddv_scf|^2 =  2.251E-11

      iter #   7 total cpu time :    14.7 secs   av.it.:   8.6
      thresh= 4.744E-07 alpha_mix =  0.700 |ddv_scf|^2 =  1.712E-12

      iter #   8 total cpu time :    14.9 secs   av.it.:   8.6
      thresh= 1.309E-07 alpha_mix =  0.700 |ddv_scf|^2 =  4.936E-13

     End of self-consistent calculation

     Convergence has been achieved 


     Representation #   3 mode #   3

     Self-consistent Calculation

      iter #   1 total cpu time :    15.1 secs   av.it.:   5.6
      thresh= 1.000E-02 alpha_mix =  0.700 |ddv_scf|^2 =  4.615E-05

      iter #   2 total cpu time :    15.3 secs   av.it.:   8.9
      thresh= 6.793E-04 alpha_mix =  0.700 |ddv_scf|^2 =  1.210E-04

      iter #   3 total cpu time :    15.4 secs   av.it.:   7.7
      thresh= 1.100E-03 alpha_mix =  0.700 |ddv_scf|^2 =  1.133E-06

      iter #   4 total cpu time :    15.6 secs   av.it.:   8.0
      thresh= 1.064E-04 alpha_mix =  0.700 |ddv_scf|^2 =  2.777E-09

      iter #   5 total cpu time :    15.8 secs   av.it.:   8.7
      thresh= 5.270E-06 alpha_mix =  0.700 |ddv_scf|^2 =  3.142E-10

      iter #   6 total cpu time :    16.0 secs   av.it.:   8.6
      thresh= 1.773E-06 alpha_mix =  0.700 |ddv_scf|^2 =  1.359E-11

      iter #   7 total cpu time :    16.2 secs   av.it.:   8.7
      thresh= 3.686E-07 alpha_mix =  0.700 |ddv_scf|^2 =  8.067E-13

     End of self-consistent calculation

     Convergence has been achieved 


     Representation #   4 mode #   4

     Self-consistent Calculation

      iter #   1 total cpu time :    16.3 secs   av.it.:   5.4
      thresh= 1.000E-02 alpha_mix =  0.700 |ddv_scf|^2 =  1.522E-05

      iter #   2 total cpu time :    16.5 secs   av.it.:   8.9
      thresh= 3.901E-04 alpha_mix =  0.700 |ddv_scf|^2 =  2.732E-05

      iter #   3 total cpu time :    16.7 secs   av.it.:   7.9
      thresh= 5.226E-04 alpha_mix =  0.700 |ddv_scf|^2 =  8.981E-07

      iter #   4 total cpu time :    16.8 secs   av.it.:   8.1
      thresh= 9.477E-05 alpha_mix =  0.700 |ddv_scf|^2 =  8.473E-09

      iter #   5 total cpu time :    17.0 secs   av.it.:   8.5
      thresh= 9.205E-06 alpha_mix =  0.700 |ddv_scf|^2 =  5.489E-10

      iter #   6 total cpu time :    17.2 secs   av.it.:   8.5
      thresh= 2.343E-06 alpha_mix =  0.700 |ddv_scf|^2 =  1.739E-11

      iter #   7 total cpu time :    17.4 secs   av.it.:   8.7
      thresh= 4.170E-07 alpha_mix =  0.700 |ddv_scf|^2 =  1.434E-12

      iter #   8 total cpu time :    17.6 secs   av.it.:   8.7
      thresh= 1.198E-07 alpha_mix =  0.700 |ddv_scf|^2 =  1.441E-13

     End of self-consistent calculation

     Convergence has been achieved 


     Representation #   5 mode #   5

     Self-consistent Calculation

      iter #   1 total cpu time :    17.7 secs   av.it.:   5.2
      thresh= 1.000E-02 alpha_mix =  0.700 |ddv_scf|^2 =  2.917E-06

      iter #   2 total cpu time :    17.9 secs   av.it.:   8.7
      thresh= 1.708E-04 alpha_mix =  0.700 |ddv_scf|^2 =  5.456E-07

[...]
        k(   82) = (  -1.5000000  -1.0000000  -0.3333333), wk =   0.0000000

     Dense  grid:     3143 G-vectors     FFT dimensions: (  24,  24,  24)

     Estimated max dynamical RAM per process >       1.68 MB

     Estimated total dynamical RAM >       6.73 MB

     The potential is recalculated from file :
     ./_ph0/si.save/charge-density

     Starting wfcs are    8 atomic wfcs

     Band Structure Calculation
     Davidson diagonalization with overlap

     ethr =  1.25E-10,  avg # of iterations = 11.0

     total cpu time spent up to now is        1.8 secs

     End of band structure calculation

          k = 0.0000 0.0000 0.0000 (   411 PWs)   bands (ev):

    -5.8114   6.2534   6.2534   6.2534

          k =-0.5000-1.0000 0.0000 (   396 PWs)   bands (ev):

    -1.4178  -1.4178   2.2889   2.2889

          k =-0.1667 0.1667-0.1667 (   387 PWs)   bands (ev):

    -5.4433   3.8569   5.7946   5.7946

          k =-0.6667-0.8333-0.1667 (   401 PWs)   bands (ev):

    -2.5479  -0.5117   2.2004   3.5663

          k =-0.3333 0.3333-0.3333 (   401 PWs)   bands (ev):

    -4.4080   0.8586   5.2335   5.2335

          k =-0.8333-0.6667-0.3333 (   405 PWs)   bands (ev):

    -3.4147   0.1878   2.9608   4.0745

          k = 0.5000-0.5000 0.5000 (   392 PWs)   bands (ev):

    -3.4168  -0.8208   5.0331   5.0331

          k = 0.0000-1.5000 0.5000 (   407 PWs)   bands (ev):

    -3.7288   0.7535   2.4002   4.8975

          k = 0.0000 0.3333 0.0000 (   399 PWs)   bands (ev):

    -5.3195   4.2402   5.0306   5.0306

          k =-0.5000-0.6667 0.0000 (   401 PWs)   bands (ev):

    -3.0247   0.0153   1.9886   4.1259

          k =-0.1667 0.5000-0.1667 (   398 PWs)   bands (ev):

    -4.4894   1.7966   4.2250   4.4672

          k =-0.6667-0.5000-0.1667 (   402 PWs)   bands (ev):

    -3.0400  -0.3492   2.5873   4.2339

          k = 0.6667-0.3333 0.6667 (   403 PWs)   bands (ev):

    -3.2638  -0.4271   3.4257   4.4383

          k = 0.1667-1.3333 0.6667 (   401 PWs)   bands (ev):

    -2.7000  -0.5990   2.2631   4.1835

          k = 0.5000-0.1667 0.5000 (   404 PWs)   bands (ev):

    -3.6624   0.1899   3.1426   4.9297

          k = 0.0000-1.1667 0.5000 (   401 PWs)   bands (ev):

    -2.2221  -0.6837   1.9242   3.0894

          k = 0.3333 0.0000 0.3333 (   397 PWs)   bands (ev):

    -4.8452   2.5282   3.7766   5.6805

          k =-0.1667-1.0000 0.3333 (   405 PWs)   bands (ev):

    -1.9365  -1.0286   1.8791   3.4096

          k = 0.0000 0.6667 0.0000 (   399 PWs)   bands (ev):

    -3.8750   1.2512   3.7812   3.7812

          k =-0.5000-0.3333 0.0000 (   400 PWs)   bands (ev):

    -4.2652   1.5548   3.0732   4.9542

          k = 0.8333-0.1667 0.8333 (   402 PWs)   bands (ev):

    -2.6875  -0.3264   2.5223   3.6419

          k = 0.3333-1.1667 0.8333 (   402 PWs)   bands (ev):

    -3.6803   0.7844   3.1942   3.9592

          k = 0.6667-0.0000 0.6667 (   403 PWs)   bands (ev):

    -2.4769  -0.5444   1.7145   4.0945

          k = 0.1667-1.0000 0.6667 (   400 PWs)   bands (ev):

    -2.5252  -0.3999   2.3827   3.0159

          k = 0.0000-1.0000 0.0000 (   388 PWs)   bands (ev):

    -1.5963  -1.5963   3.3377   3.3377

          k =-0.5000-2.0000 0.0000 (   415 PWs)   bands (ev):

    -4.7130   2.7570   4.3183   4.3183

          k = 0.6667-0.3333 1.0000 (   407 PWs)   bands (ev):

    -3.4804   0.6002   2.5892   3.8994

          k = 0.1667-1.3333 1.0000 (   400 PWs)   bands (ev):

    -2.5252  -0.3999   2.3827   3.0159

          k = 0.5000-0.1667 0.8333 (   400 PWs)   bands (ev):

    -2.4648  -0.6284   2.1429   3.4162

          k = 0.0000-1.1667 0.8333 (   405 PWs)   bands (ev):

    -1.7302  -1.3326   2.2999   3.5339

          k =-0.3333-1.0000 0.0000 (   398 PWs)   bands (ev):

    -1.4668  -1.4668   2.5066   2.5066

          k =-0.8333-2.0000 0.0000 (   404 PWs)   bands (ev):

    -2.8288  -0.2212   3.4490   3.4490

          k = 0.3333 0.0000 0.0000 (   399 PWs)   bands (ev):

    -5.3195   4.2402   5.0306   5.0306

          k =-0.1667-1.0000 0.0000 (   406 PWs)   bands (ev):

    -1.5567  -1.5567   3.0148   3.0148

          k = 0.1667-0.5000 0.1667 (   398 PWs)   bands (ev):

    -4.4894   1.7966   4.2250   4.4672

          k =-0.3333-1.5000 0.1667 (   399 PWs)   bands (ev):

    -4.1678   0.9385   3.7694   4.9181

          k = 0.5000-0.1667-0.1667 (   398 PWs)   bands (ev):

    -4.4894   1.7966   4.2250   4.4672

          k = 0.0000-1.1667-0.1667 (   406 PWs)   bands (ev):

    -2.7487  -0.2560   3.0517   3.2525

          k =-0.6667 0.3333-0.6667 (   403 PWs)   bands (ev):

    -3.2638  -0.4271   3.4257   4.4383

          k =-1.1667-0.6667-0.6667 (   396 PWs)   bands (ev):

    -4.7341   1.8134   4.5284   5.5595

          k =-0.3333 0.6667 0.6667 (   403 PWs)   bands (ev):

    -3.2638  -0.4271   3.4257   4.4383

          k =-0.8333-0.3333 0.6667 (   405 PWs)   bands (ev):

    -3.4147   0.1878   2.9608   4.0745

          k =-0.5000 0.1667-0.5000 (   404 PWs)   bands (ev):

    -3.6624   0.1899   3.1426   4.9297

          k =-1.0000-0.8333-0.5000 (   403 PWs)   bands (ev):

    -4.5991   2.3391   3.8640   4.5926

          k =-0.1667 0.5000 0.5000 (   404 PWs)   bands (ev):

    -3.6624   0.1899   3.1426   4.9297

          k =-0.6667-0.5000 0.5000 (   402 PWs)   bands (ev):

    -3.5094  -0.5259   4.3435   4.9966

          k =-0.3333 0.0000-0.3333 (   397 PWs)   bands (ev):

    -4.8452   2.5282   3.7766   5.6805

          k =-0.8333-1.0000-0.3333 (   407 PWs)   bands (ev):

    -3.7752   1.0702   3.3427   3.7826

          k = 0.0000 0.3333 0.3333 (   397 PWs)   bands (ev):

    -4.8452   2.5282   3.7766   5.6805

          k =-0.5000-0.6667 0.3333 (   396 PWs)   bands (ev):

    -3.1739  -0.6952   3.6109   4.5689

          k = 0.6667 0.0000 0.0000 (   399 PWs)   bands (ev):

    -3.8750   1.2512   3.7812   3.7812

          k = 0.1667-1.0000 0.0000 (   406 PWs)   bands (ev):

    -1.5567  -1.5567   3.0148   3.0148

          k =-0.8333 0.1667-0.8333 (   402 PWs)   bands (ev):

    -2.6875  -0.3264   2.5223   3.6419

          k =-1.3333-0.8333-0.8333 (   390 PWs)   bands (ev):

    -5.0822   2.8017   5.1206   5.3150

          k =-0.1667 0.8333 0.8333 (   402 PWs)   bands (ev):

    -2.6875  -0.3264   2.5223   3.6419

          k =-0.6667-0.1667 0.8333 (   401 PWs)   bands (ev):

    -2.5479  -0.5117   2.2004   3.5663

          k =-0.6667 0.0000-0.6667 (   403 PWs)   bands (ev):

    -2.4769  -0.5444   1.7145   4.0945

          k =-1.1667-1.0000-0.6667 (   387 PWs)   bands (ev):

    -5.1994   3.5291   4.5759   5.5389

          k = 0.0000 0.6667 0.6667 (   403 PWs)   bands (ev):

    -2.4769  -0.5444   1.7145   4.0945

          k =-0.5000-0.3333 0.6667 (   396 PWs)   bands (ev):

    -3.1739  -0.6952   3.6109   4.5689

          k =-1.0000 0.0000 0.0000 (   388 PWs)   bands (ev):

    -1.5963  -1.5963   3.3377   3.3377

          k =-1.5000-1.0000 0.0000 (   396 PWs)   bands (ev):

    -1.4178  -1.4178   2.2889   2.2889

          k =-1.0000 0.3333-0.6667 (   407 PWs)   bands (ev):

    -3.4804   0.6002   2.5892   3.8994

          k =-1.5000-0.6667-0.6667 (   406 PWs)   bands (ev):

    -3.8938   0.0837   4.6521   4.8163

          k =-0.6667 0.3333 1.0000 (   407 PWs)   bands (ev):

    -3.4804   0.6002   2.5892   3.8994

          k =-1.1667-0.6667 1.0000 (   387 PWs)   bands (ev):

    -5.1994   3.5291   4.5759   5.5389

          k =-0.3333 1.0000 0.6667 (   407 PWs)   bands (ev):

    -3.4804   0.6002   2.5892   3.8994

          k =-0.8333 0.0000 0.6667 (   405 PWs)   bands (ev):

    -1.9365  -1.0286   1.8791   3.4096

          k = 0.3333 1.0000-0.6667 (   407 PWs)   bands (ev):

    -3.4804   0.6002   2.5892   3.8994

          k =-0.1667 0.0000-0.6667 (   407 PWs)   bands (ev):

    -3.7752   1.0702   3.3427   3.7826

          k =-0.8333 0.1667-0.5000 (   400 PWs)   bands (ev):

    -2.4648  -0.6284   2.1429   3.4162

          k =-1.3333-0.8333-0.5000 (   399 PWs)   bands (ev):

    -4.1678   0.9385   3.7694   4.9181

          k = 0.8333-0.1667 0.5000 (   400 PWs)   bands (ev):

    -2.4648  -0.6284   2.1429   3.4162

          k = 0.3333-1.1667 0.5000 (   402 PWs)   bands (ev):

    -3.0400  -0.3492   2.5873   4.2339

          k =-0.5000 0.1667 0.8333 (   400 PWs)   bands (ev):

    -2.4648  -0.6284   2.1429   3.4162

          k =-1.0000-0.8333 0.8333 (   385 PWs)   bands (ev):

    -5.5643   4.6663   5.3658   6.1373

          k = 0.0000 1.0000 0.3333 (   398 PWs)   bands (ev):

    -1.4668  -1.4668   2.5066   2.5066

          k =-0.5000-0.0000 0.3333 (   400 PWs)   bands (ev):

    -4.2652   1.5548   3.0732   4.9542

          k = 0.3333 1.0000 0.0000 (   398 PWs)   bands (ev):

    -1.4668  -1.4668   2.5066   2.5066

          k =-0.1667 0.0000 0.0000 (   399 PWs)   bands (ev):

    -5.6876   5.5754   5.8117   5.8117

          k =-1.0000 0.0000-0.3333 (   398 PWs)   bands (ev):

    -1.4668  -1.4668   2.5066   2.5066

          k =-1.5000-1.0000-0.3333 (   401 PWs)   bands (ev):

    -3.0247   0.0153   1.9886   4.1259

     highest occupied level (ev):     6.2534

     Writing output data file ./_ph0/si.save/

     --                                                                         

     bravais-lattice index     =            2
     lattice parameter (alat)  =      10.2000  a.u.
     unit-cell volume          =     265.3020 (a.u.)^3
     number of atoms/cell      =            2
     number of atomic types    =            1
     kinetic-energy cut-off    =      20.0000  Ry
     charge density cut-off    =      80.0000  Ry
     convergence threshold     =      1.0E-12
     beta                      =       0.7000
     number of iterations used =            4
     Exchange-correlation= PZ
                           (   1   1   0   0   0   0   0)


     celldm(1)=   10.20000  celldm(2)=    0.00000  celldm(3)=    0.00000
     celldm(4)=    0.00000  celldm(5)=    0.00000  celldm(6)=    0.00000

     crystal axes: (cart. coord. in units of alat)
               a(1) = ( -0.5000  0.0000  0.5000 )  
               a(2) = (  0.0000  0.5000  0.5000 )  
               a(3) = ( -0.5000  0.5000  0.0000 )  

     reciprocal axes: (cart. coord. in units 2 pi/alat)
               b(1) = ( -1.0000 -1.0000  1.0000 )  
               b(2) = (  1.0000  1.0000  1.0000 )  
               b(3) = ( -1.0000  1.0000 -1.0000 )  


     Atoms inside the unit cell: 

     Cartesian axes

     site n.  atom      mass           positions (alat units)
        1     Si  28.0855   tau(    1) = (    0.00000    0.00000    0.00000  )
        2     Si  28.0855   tau(    2) = (    0.25000    0.25000    0.25000  )

     Computing dynamical matrix for 
                    q = (  -0.5000000  -1.0000000   0.0000000 )
 
      8 Sym.Ops. (no q -> -q+G )


     G cutoff =  210.8291  (   3143 G-vectors)     FFT grid: ( 24, 24, 24)
     number of k points=    82

     PseudoPot. # 1 for Si read from file:
     ./Si.pz-vbc.UPF
     MD5 check sum: 9f25e6ff280f3123e9b3a84715b2e9c9
     Pseudo is Norm-conserving, Zval =  4.0
     Generated by new atomic code, or converted to UPF format
     Using radial grid of  431 points,  2 beta functions with: 
                l(1) =   0
                l(2) =   1


     Atomic displacements:
     There are    3 irreducible representations

     Representation     1      2 modes -  To be done

     Representation     2      2 modes -  To be done

     Representation     3      2 modes -  To be done



     Alpha used in Ewald sum =   0.8000
     PHONON       :     20.01s CPU     25.30s WALL



     Representation #   1 modes #   1   2

     Self-consistent Calculation

      iter #   1 total cpu time :    25.4 secs   av.it.:   5.5
      thresh= 1.000E-02 alpha_mix =  0.700 |ddv_scf|^2 =  6.151E-06

      iter #   2 total cpu time :    25.5 secs   av.it.:   9.5
      thresh= 2.480E-04 alpha_mix =  0.700 |ddv_scf|^2 =  8.020E-06

      iter #   3 total cpu time :    25.7 secs   av.it.:   8.8
      thresh= 2.832E-04 alpha_mix =  0.700 |ddv_scf|^2 =  9.533E-10

      iter #   4 total cpu time :    25.8 secs   av.it.:   9.2
      thresh= 3.088E-06 alpha_mix =  0.700 |ddv_scf|^2 =  2.172E-11

      iter #   5 total cpu time :    26.0 secs   av.it.:   9.0
      thresh= 4.660E-07 alpha_mix =  0.700 |ddv_scf|^2 =  6.655E-14

     End of self-consistent calculation

     Convergence has been achieved 


     Representation #   2 modes #   3   4

     Self-consistent Calculation

      iter #   1 total cpu time :    26.1 secs   av.it.:   5.4
      thresh= 1.000E-02 alpha_mix =  0.700 |ddv_scf|^2 =  2.867E-06

      iter #   2 total cpu time :    26.2 secs   av.it.:   9.4
      thresh= 1.693E-04 alpha_mix =  0.700 |ddv_scf|^2 =  1.817E-06

      iter #   3 total cpu time :    26.4 secs   av.it.:   8.8
      thresh= 1.348E-04 alpha_mix =  0.700 |ddv_scf|^2 =  1.597E-10

      iter #   4 total cpu time :    26.5 secs   av.it.:   9.0
      thresh= 1.264E-06 alpha_mix =  0.700 |ddv_scf|^2 =  1.093E-11

      iter #   5 total cpu time :    26.6 secs   av.it.:   9.0
      thresh= 3.306E-07 alpha_mix =  0.700 |ddv_scf|^2 =  1.858E-14

     End of self-consistent calculation

     Convergence has been achieved 


     Representation #   3 modes #   5   6

     Self-consistent Calculation

      iter #   1 total cpu time :    26.7 secs   av.it.:   5.5
      thresh= 1.000E-02 alpha_mix =  0.700 |ddv_scf|^2 =  3.463E-06

      iter #   2 total cpu time :    26.9 secs   av.it.:   9.5
      thresh= 1.861E-04 alpha_mix =  0.700 |ddv_scf|^2 =  2.257E-06

      iter #   3 total cpu time :    27.0 secs   av.it.:   8.9
      thresh= 1.502E-04 alpha_mix =  0.700 |ddv_scf|^2 =  1.481E-10

      iter #   4 total cpu time :    27.2 secs   av.it.:   9.2
      thresh= 1.217E-06 alpha_mix =  0.700 |ddv_scf|^2 =  1.743E-11

      iter #   5 total cpu time :    27.3 secs   av.it.:   9.1
      thresh= 4.175E-07 alpha_mix =  0.700 |ddv_scf|^2 =  9.512E-15

     End of self-consistent calculation

     Convergence has been achieved 
 
     Number of q in the star =    6
     List of q in the star:
          1  -0.500000000  -1.000000000   0.000000000
          2   0.000000000   1.000000000   0.500000000
          3   0.000000000  -1.000000000  -0.500000000
          4   0.500000000   1.000000000   0.000000000
          5  -1.000000000  -0.500000000   0.000000000
          6   0.000000000  -0.500000000  -1.000000000

     Diagonalizing the dynamical matrix

     q = (   -0.500000000  -1.000000000   0.000000000 ) 

 **************************************************************************
     freq (    1) =       6.063897 [THz] =     202.269831 [cm-1]
     freq (    2) =       6.063897 [THz] =     202.269831 [cm-1]
     freq (    3) =      10.428072 [THz] =     347.843041 [cm-1]
     freq (    4) =      10.428072 [THz] =     347.843041 [cm-1]
     freq (    5) =      13.864721 [THz] =     462.477327 [cm-1]
     freq (    6) =      13.864721 [THz] =     462.477327 [cm-1]
 **************************************************************************
 
     init_run     :      0.06s CPU      0.07s WALL (       7 calls)
     electrons    :      1.46s CPU      1.56s WALL (       7 calls)

     Called by init_run:
     wfcinit      :      0.00s CPU      0.01s WALL (       7 calls)
     potinit      :      0.01s CPU      0.01s WALL (       7 calls)
     hinit0       :      0.04s CPU      0.04s WALL (       7 calls)

     Called by electrons:
     c_bands      :      1.46s CPU      1.56s WALL (       7 calls)
     v_of_rho     :      0.01s CPU      0.03s WALL (       8 calls)

     Called by c_bands:
     init_us_2    :      0.16s CPU      0.18s WALL (    4005 calls)
     cegterg      :      1.13s CPU      1.18s WALL (     208 calls)

     Called by *egterg:
     cdiaghg      :      0.12s CPU      0.12s WALL (    2487 calls)
     h_psi        :     13.84s CPU     14.65s WALL (   39296 calls)
     g_psi        :      0.01s CPU      0.01s WALL (    2279 calls)

     Called by h_psi:
     h_psi:calbec :      0.32s CPU      0.34s WALL (   39296 calls)
     vloc_psi     :     12.91s CPU     13.66s WALL (   39296 calls)
     add_vuspsi   :      0.29s CPU      0.31s WALL (   39296 calls)

     General routines
     calbec       :      0.47s CPU      0.50s WALL (   79581 calls)
     fft          :      0.04s CPU      0.13s WALL (     839 calls)
     ffts         :      0.03s CPU      0.03s WALL (     864 calls)
     fftw         :     11.84s CPU     12.61s WALL (  340202 calls)
     davcio       :      0.28s CPU      0.42s WALL (   19255 calls)
 
     Parallel routines
 
     PHONON       :     21.79s CPU     27.34s WALL

     INITIALIZATION: 
     phq_setup    :      0.01s CPU      0.06s WALL (       8 calls)
     phq_init     :      0.09s CPU      0.36s WALL (       8 calls)
 
     phq_init     :      0.09s CPU      0.36s WALL (       8 calls)
     init_vloc    :      0.00s CPU      0.00s WALL (       8 calls)
     init_us_1    :      0.02s CPU      0.02s WALL (       8 calls)
 
     DYNAMICAL MATRIX:
     dynmat0      :      0.04s CPU      0.27s WALL (       8 calls)
     phqscf       :     19.48s CPU     22.12s WALL (       8 calls)
     dynmatrix    :      0.01s CPU      0.05s WALL (       8 calls)
 
     phqscf       :     19.48s CPU     22.12s WALL (       8 calls)
     solve_linter :     19.39s CPU     21.89s WALL (      32 calls)
     drhodv       :      0.07s CPU      0.09s WALL (      32 calls)
 
     dynmat0      :      0.04s CPU      0.27s WALL (       8 calls)
     dynmat_us    :      0.03s CPU      0.06s WALL (       8 calls)
     d2ionq       :      0.01s CPU      0.11s WALL (       8 calls)
 
     dynmat_us    :      0.03s CPU      0.06s WALL (       8 calls)
 
     phqscf       :     19.48s CPU     22.12s WALL (       8 calls)
     solve_linter :     19.39s CPU     21.89s WALL (      32 calls)
 
     solve_linter :     19.39s CPU     21.89s WALL (      32 calls)
     dvqpsi_us    :      0.33s CPU      0.42s WALL (     672 calls)
     ortho        :      0.06s CPU      0.06s WALL (    3787 calls)
     cgsolve      :     14.29s CPU     15.17s WALL (    3787 calls)
     incdrhoscf   :      1.68s CPU      1.84s WALL (    3775 calls)
     vpsifft      :      1.20s CPU      1.34s WALL (    3067 calls)
     dv_of_drho   :      0.05s CPU      0.05s WALL (     269 calls)
     mix_pot      :      0.10s CPU      0.79s WALL (     185 calls)
     psymdvscf    :      0.77s CPU      0.78s WALL (     180 calls)
 
     dvqpsi_us    :      0.33s CPU      0.42s WALL (     672 calls)
     dvqpsi_us_on :      0.02s CPU      0.05s WALL (     672 calls)
 
     cgsolve      :     14.29s CPU     15.17s WALL (    3787 calls)
     ch_psi       :     13.96s CPU     14.82s WALL (   36601 calls)
 
     ch_psi       :     13.96s CPU     14.82s WALL (   36601 calls)
     h_psi        :     13.84s CPU     14.65s WALL (   39296 calls)
     last         :      0.79s CPU      0.87s WALL (   36601 calls)
 
     h_psi        :     13.84s CPU     14.65s WALL (   39296 calls)
     add_vuspsi   :      0.29s CPU      0.31s WALL (   39296 calls)
 
     incdrhoscf   :      1.68s CPU      1.84s WALL (    3775 calls)
 
 
      General routines
     calbec       :      0.47s CPU      0.50s WALL (   79581 calls)
     fft          :      0.04s CPU      0.13s WALL (     839 calls)
     ffts         :      0.03s CPU      0.03s WALL (     864 calls)
     fftw         :     11.84s CPU     12.61s WALL (  340202 calls)
     davcio       :      0.28s CPU      0.42s WALL (   19255 calls)
     write_rec    :      0.08s CPU      0.75s WALL (     217 calls)
 
 
     PHONON       :     21.79s CPU     27.34s WALL

 
   This run was terminated on:   8:35: 7  30May2021            

=------------------------------------------------------------------------------=
   JOB DONE.
=------------------------------------------------------------------------------=
TACC:  Shutdown complete. Exiting. 
