TACC:  Starting up job 3034364 
TACC:  Starting parallel tasks... 

     Program PWSCF v.6.7GPU starts on 30May2021 at 11: 0:23 

     This program is part of the open-source Quantum ESPRESSO suite
     for quantum simulation of materials; please cite
         "P. Giannozzi et al., J. Phys.:Condens. Matter 21 395502 (2009);
         "P. Giannozzi et al., J. Phys.:Condens. Matter 29 465901 (2017);
         "P. Giannozzi et al., J. Chem. Phys. 152 154105 (2020);
          URL http://www.quantum-espresso.org", 
     in publications or presentations arising from this work. More details at
     http://www.quantum-espresso.org/quote

     Parallel version (MPI), running on    56 processors

     MPI processes distributed on     1 nodes
     R & G space division:  proc/nbgrp/npool/nimage =      56
     Waiting for input...
     Reading input from standard input

     Current dimensions of program PWSCF are:
     Max number of different atomic species (ntypx) = 10
     Max number of k-points (npk) =  40000
     Max angular momentum in pseudopotentials (lmaxx) =  3

     Atomic positions and unit cell read from directory:
     ./si_333_equil.save/
     Atomic positions from file used, from input discarded
 
     Found symmetry operation: I + (  0.3333  0.0000  0.0000)
     This is a supercell, fractional translations are disabled

     Subspace diagonalization in iterative solution of the eigenvalue problem:
     a serial algorithm will be used

 
     Parallelization info
     --------------------
     sticks:   dense  smooth     PW     G-vecs:    dense   smooth      PW
     Min          46      46     12                 1544     1544     218
     Max          48      48     13                 1547     1547     225
     Sum        2587    2587    703                86547    86547   12339
 
     Using Slab Decomposition
 


     bravais-lattice index     =            2
     lattice parameter (alat)  =      30.6000  a.u.
     unit-cell volume          =    7163.1540 (a.u.)^3
     number of atoms/cell      =           54
     number of atomic types    =            1
     number of electrons       =       216.00
     number of Kohn-Sham states=          135
     kinetic-energy cutoff     =      20.0000  Ry
     charge density cutoff     =      80.0000  Ry
     Exchange-correlation= SLA  PZ   NOGX NOGC
                           (   1   1   0   0   0   0   0)

     celldm(1)=  30.600000  celldm(2)=   0.000000  celldm(3)=   0.000000
     celldm(4)=   0.000000  celldm(5)=   0.000000  celldm(6)=   0.000000

     crystal axes: (cart. coord. in units of alat)
               a(1) = (  -0.500000   0.000000   0.500000 )  
               a(2) = (   0.000000   0.500000   0.500000 )  
               a(3) = (  -0.500000   0.500000   0.000000 )  

     reciprocal axes: (cart. coord. in units 2 pi/alat)
               b(1) = ( -1.000000 -1.000000  1.000000 )  
               b(2) = (  1.000000  1.000000  1.000000 )  
               b(3) = ( -1.000000  1.000000 -1.000000 )  


     PseudoPot. # 1 for Si read from file:
     ./Si.pz-vbc.UPF
     MD5 check sum: 9f25e6ff280f3123e9b3a84715b2e9c9
     Pseudo is Norm-conserving, Zval =  4.0
     Generated by new atomic code, or converted to UPF format
     Using radial grid of  431 points,  2 beta functions with: 
                l(1) =   0
                l(2) =   1

     atomic species   valence    mass     pseudopotential
        Si             4.00    28.08600     Si( 1.00)

     No symmetry found



   Cartesian axes

     site n.     atom                  positions (alat units)
         1           Si  tau(   1) = (   0.0000000   0.0000000   0.0000000  )
         2           Si  tau(   2) = (   0.0833333   0.0833333   0.0833333  )
         3           Si  tau(   3) = (  -0.1666667   0.0000000   0.1666667  )
         4           Si  tau(   4) = (  -0.0833333   0.0833333   0.2500000  )
         5           Si  tau(   5) = (  -0.3333333   0.0000000   0.3333333  )
         6           Si  tau(   6) = (  -0.2500000   0.0833333   0.4166667  )
         7           Si  tau(   7) = (   0.0000000   0.1666667   0.1666667  )
         8           Si  tau(   8) = (   0.0833333   0.2500000   0.2500000  )
         9           Si  tau(   9) = (  -0.1666667   0.1666667   0.3333333  )
        10           Si  tau(  10) = (  -0.0833333   0.2500000   0.4166667  )
        11           Si  tau(  11) = (  -0.3333333   0.1666667   0.5000000  )
        12           Si  tau(  12) = (  -0.2500000   0.2500000   0.5833333  )
        13           Si  tau(  13) = (   0.0000000   0.3333333   0.3333333  )
        14           Si  tau(  14) = (   0.0833333   0.4166667   0.4166667  )
        15           Si  tau(  15) = (  -0.1666667   0.3333333   0.5000000  )
        16           Si  tau(  16) = (  -0.0833333   0.4166667   0.5833333  )
        17           Si  tau(  17) = (  -0.3333333   0.3333333   0.6666667  )
        18           Si  tau(  18) = (  -0.2500000   0.4166667   0.7500000  )
        19           Si  tau(  19) = (  -0.1666667   0.1666667   0.0000000  )
        20           Si  tau(  20) = (  -0.0833333   0.2500000   0.0833333  )
        21           Si  tau(  21) = (  -0.3333333   0.1666667   0.1666667  )
        22           Si  tau(  22) = (  -0.2500000   0.2500000   0.2500000  )
        23           Si  tau(  23) = (  -0.5000000   0.1666667   0.3333333  )
        24           Si  tau(  24) = (  -0.4166667   0.2500000   0.4166667  )
        25           Si  tau(  25) = (  -0.1666667   0.3333333   0.1666667  )
        26           Si  tau(  26) = (  -0.0833333   0.4166667   0.2500000  )
        27           Si  tau(  27) = (  -0.3333333   0.3333333   0.3333333  )
        28           Si  tau(  28) = (  -0.2500000   0.4166667   0.4166667  )
        29           Si  tau(  29) = (  -0.5000000   0.3333333   0.5000000  )
        30           Si  tau(  30) = (  -0.4166667   0.4166667   0.5833333  )
        31           Si  tau(  31) = (  -0.1666667   0.5000000   0.3333333  )
        32           Si  tau(  32) = (  -0.0833333   0.5833333   0.4166667  )
        33           Si  tau(  33) = (  -0.3333333   0.5000000   0.5000000  )
        34           Si  tau(  34) = (  -0.2500000   0.5833333   0.5833333  )
        35           Si  tau(  35) = (  -0.5000000   0.5000000   0.6666667  )
        36           Si  tau(  36) = (  -0.4166667   0.5833333   0.7500000  )
        37           Si  tau(  37) = (  -0.3333333   0.3333333   0.0000000  )
        38           Si  tau(  38) = (  -0.2500000   0.4166667   0.0833333  )
        39           Si  tau(  39) = (  -0.5000000   0.3333333   0.1666667  )
        40           Si  tau(  40) = (  -0.4166667   0.4166667   0.2500000  )
        41           Si  tau(  41) = (  -0.6666667   0.3333333   0.3333333  )
        42           Si  tau(  42) = (  -0.5833333   0.4166667   0.4166667  )
        43           Si  tau(  43) = (  -0.3333333   0.5000000   0.1666667  )
        44           Si  tau(  44) = (  -0.2500000   0.5833333   0.2500000  )
        45           Si  tau(  45) = (  -0.5000000   0.5000000   0.3333333  )
        46           Si  tau(  46) = (  -0.4166667   0.5833333   0.4166667  )
        47           Si  tau(  47) = (  -0.6666667   0.5000000   0.5000000  )
        48           Si  tau(  48) = (  -0.5833333   0.5833333   0.5833333  )
        49           Si  tau(  49) = (  -0.3333333   0.6666667   0.3333333  )
        50           Si  tau(  50) = (  -0.2500000   0.7500000   0.4166667  )
        51           Si  tau(  51) = (  -0.5000000   0.6666667   0.5000000  )
        52           Si  tau(  52) = (  -0.4166667   0.7500000   0.5833333  )
        53           Si  tau(  53) = (  -0.6666667   0.6666667   0.6666667  )
        54           Si  tau(  54) = (  -0.5833333   0.7500000   0.7500000  )

     number of k points=     1
                       cart. coord. in units 2pi/alat
        k(    1) = (   0.4401420   0.5922860   0.6484400), wk =   2.0000000

     Dense  grid:    86547 G-vectors     FFT dimensions: (  64,  64,  64)

     Estimated max dynamical RAM per process >       7.21 MB

     Estimated total dynamical RAM >     403.73 MB

     The potential is recalculated from file :
     ./si_333_equil.save/charge-density

     Starting wfcs are  216 randomized atomic wfcs

     Band Structure Calculation
     Davidson diagonalization with overlap

     ethr =  4.63E-11,  avg # of iterations =106.0

     total cpu time spent up to now is        3.6 secs

     End of band structure calculation

          k = 0.4401 0.5923 0.6484 ( 10818 PWs)   bands (ev):

    -5.5145  -5.3396  -4.6686  -4.6658  -4.5645  -4.3820  -4.2883  -4.2789
    -3.9579  -3.7261  -3.6508  -3.6496  -3.5667  -3.4314  -3.3763  -3.0035
    -2.8980  -2.7536  -2.6425  -2.6080  -2.6009  -2.5901  -2.4893  -2.4658
    -2.3588  -2.3216  -2.2619  -0.7798  -0.7196  -0.6861  -0.6738  -0.5930
    -0.5903  -0.5585  -0.5564  -0.5248  -0.4264  -0.2924  -0.1850  -0.0830
    -0.0053   0.0278   0.1582   0.2193   0.3788   0.6300   1.2745   1.5486
     1.7444   1.8209   2.0142   2.0309   2.0495   2.0979   2.1806   2.2694
     2.3075   2.3194   2.3614   2.3770   2.3935   2.6970   2.7018   2.7511
     2.7815   2.8317   3.0056   3.1809   3.2496   3.3117   3.3894   3.4621
     3.4705   3.5302   3.5310   3.5311   3.5627   3.5742   3.5937   3.6309
     3.6720   3.7037   3.7650   3.8333   3.8884   4.1316   4.2337   4.2415
     4.3045   4.3221   4.4066   4.4112   4.4836   4.4992   4.7532   4.7654
     4.7830   4.7933   4.8517   4.9359   4.9361   4.9380   5.0055   5.1016
     5.4955   5.7078   5.8243   5.9271   7.1071   7.2498   7.3503   7.3518
     7.3709   7.4198   7.9171   8.0178   8.0220   8.0712   8.2341   8.2980
     8.4238   8.4398   8.5459   8.6305   8.7252   8.7313   8.7317   8.7655
     8.7681   8.8148   8.8509   8.9413   8.9651   9.0147   9.0998

     highest occupied, lowest unoccupied level (ev):     5.9271    7.1071

     Writing output data file ./si_333_equil.save/
 
     init_run     :      0.07s CPU      0.09s WALL (       1 calls)
     electrons    :      3.32s CPU      3.38s WALL (       1 calls)

     Called by init_run:
     wfcinit      :      0.00s CPU      0.01s WALL (       1 calls)
     potinit      :      0.05s CPU      0.06s WALL (       1 calls)
     hinit0       :      0.01s CPU      0.01s WALL (       1 calls)

     Called by electrons:
     c_bands      :      3.32s CPU      3.38s WALL (       1 calls)
     v_of_rho     :      0.00s CPU      0.00s WALL (       1 calls)

     Called by c_bands:
     init_us_2    :      0.00s CPU      0.00s WALL (       1 calls)
     cegterg      :      3.23s CPU      3.26s WALL (       6 calls)

     Called by *egterg:
     cdiaghg      :      1.91s CPU      1.93s WALL (     107 calls)
     h_psi        :      1.06s CPU      1.10s WALL (     113 calls)
     g_psi        :      0.00s CPU      0.00s WALL (     106 calls)

     Called by h_psi:
     h_psi:calbec :      0.07s CPU      0.08s WALL (     113 calls)
     vloc_psi     :      0.94s CPU      0.97s WALL (     113 calls)
     add_vuspsi   :      0.04s CPU      0.04s WALL (     113 calls)

     General routines
     calbec       :      0.07s CPU      0.08s WALL (     113 calls)
     fft          :      0.00s CPU      0.01s WALL (       3 calls)
     fftw         :      0.88s CPU      0.91s WALL (    8136 calls)
     davcio       :      0.00s CPU      0.00s WALL (       2 calls)
 
     Parallel routines
 
     PWSCF        :      3.54s CPU      3.72s WALL

 
   This run was terminated on:  11: 0:27  30May2021            

=------------------------------------------------------------------------------=
   JOB DONE.
=------------------------------------------------------------------------------=
TACC:  Shutdown complete. Exiting. 
