
     Program PWSCF v.6.4.1 starts on 15Jul2021 at 14: 1:26 

     This program is part of the open-source Quantum ESPRESSO suite
     for quantum simulation of materials; please cite
         "P. Giannozzi et al., J. Phys.:Condens. Matter 21 395502 (2009);
         "P. Giannozzi et al., J. Phys.:Condens. Matter 29 465901 (2017);
          URL http://www.quantum-espresso.org", 
     in publications or presentations arising from this work. More details at
     http://www.quantum-espresso.org/quote

     Parallel version (MPI & OpenMP), running on      12 processor cores
     Number of MPI processes:                 1
     Threads/MPI process:                    12

     MPI processes distributed on     1 nodes
     Waiting for input...
     Reading input from standard input

     Current dimensions of program PWSCF are:
     Max number of different atomic species (ntypx) = 10
     Max number of k-points (npk) =  40000
     Max angular momentum in pseudopotentials (lmaxx) =  3
               file Fe.pbesol-spn-kjpaw_psl.1.0.0.UPF: wavefunction(s)  3P 3D renormalized

     Subspace diagonalization in iterative solution of the eigenvalue problem:
     a serial algorithm will be used

     Found symmetry operation: I + (  0.5000 -0.5000 -0.5000)
     This is a supercell, fractional translations are disabled

     G-vector sticks info
     --------------------
     sticks:   dense  smooth     PW     G-vecs:    dense   smooth      PW
     Sum         877     349    121                19549     4945     949



     bravais-lattice index     =            1
     lattice parameter (alat)  =       5.2534  a.u.
     unit-cell volume          =     144.9876 (a.u.)^3
     number of atoms/cell      =            2
     number of atomic types    =            1
     number of electrons       =        32.00
     number of Kohn-Sham states=           20
     kinetic-energy cutoff     =      40.0000  Ry
     charge density cutoff     =     400.0000  Ry
     convergence threshold     =      1.0E-06
     mixing beta               =       0.4000
     number of iterations used =            8  plain     mixing
     Exchange-correlation      = SLA PW PSX PSC ( 1  4 10  8 0 0)

     celldm(1)=   5.253439  celldm(2)=   0.000000  celldm(3)=   0.000000
     celldm(4)=   0.000000  celldm(5)=   0.000000  celldm(6)=   0.000000

     crystal axes: (cart. coord. in units of alat)
               a(1) = (   1.000000   0.000000   0.000000 )  
               a(2) = (   0.000000   1.000000   0.000000 )  
               a(3) = (   0.000000   0.000000   1.000000 )  

     reciprocal axes: (cart. coord. in units 2 pi/alat)
               b(1) = (  1.000000  0.000000  0.000000 )  
               b(2) = (  0.000000  1.000000  0.000000 )  
               b(3) = (  0.000000  0.000000  1.000000 )  


     PseudoPot. # 1 for Fe read from file:
     .\Fe.pbesol-spn-kjpaw_psl.1.0.0.UPF
     MD5 check sum: e30d5f36a6f0cb983ee41abee56170da
     Pseudo is Projector augmented-wave + core cor, Zval = 16.0
     Generated using "atomic" code by A. Dal Corso v.6.3
     Shape of augmentation charge: PSQ
     Using radial grid of 1191 points,  6 beta functions with: 
                l(1) =   0
                l(2) =   0
                l(3) =   1
                l(4) =   1
                l(5) =   2
                l(6) =   2
     Q(r) pseudized with 0 coefficients 


     atomic species   valence    mass     pseudopotential
        Fe            16.00    55.84500     Fe( 1.00)

     Starting magnetic structure 
     atomic species   magnetization
        Fe           0.200

     48 Sym. Ops., with inversion, found



   Cartesian axes

     site n.     atom                  positions (alat units)
         1           Fe  tau(   1) = (   0.0000000   0.0000000   0.0000000  )
         2           Fe  tau(   2) = (   0.4999990   0.5000000   0.5000000  )

     number of k points=    20  gaussian smearing, width (Ry)=  0.0100
                       cart. coord. in units 2pi/alat
        k(    1) = (   0.0000000   0.0000000   0.0000000), wk =   0.0046296
        k(    2) = (   0.0000000   0.0000000   0.1666667), wk =   0.0277778
        k(    3) = (   0.0000000   0.0000000   0.3333333), wk =   0.0277778
        k(    4) = (   0.0000000   0.0000000  -0.5000000), wk =   0.0138889
        k(    5) = (   0.0000000   0.1666667   0.1666667), wk =   0.0555556
        k(    6) = (   0.0000000   0.1666667   0.3333333), wk =   0.1111111
        k(    7) = (   0.0000000   0.1666667  -0.5000000), wk =   0.0555556
        k(    8) = (   0.0000000   0.3333333   0.3333333), wk =   0.0555556
        k(    9) = (   0.0000000   0.3333333  -0.5000000), wk =   0.0555556
        k(   10) = (   0.0000000  -0.5000000  -0.5000000), wk =   0.0138889
        k(   11) = (   0.1666667   0.1666667   0.1666667), wk =   0.0370370
        k(   12) = (   0.1666667   0.1666667   0.3333333), wk =   0.1111111
        k(   13) = (   0.1666667   0.1666667  -0.5000000), wk =   0.0555556
        k(   14) = (   0.1666667   0.3333333   0.3333333), wk =   0.1111111
        k(   15) = (   0.1666667   0.3333333  -0.5000000), wk =   0.1111111
        k(   16) = (   0.1666667  -0.5000000  -0.5000000), wk =   0.0277778
        k(   17) = (   0.3333333   0.3333333   0.3333333), wk =   0.0370370
        k(   18) = (   0.3333333   0.3333333  -0.5000000), wk =   0.0555556
        k(   19) = (   0.3333333  -0.5000000  -0.5000000), wk =   0.0277778
        k(   20) = (  -0.5000000  -0.5000000  -0.5000000), wk =   0.0046296

     Dense  grid:    19549 G-vectors     FFT dimensions: (  36,  36,  36)

     Smooth grid:     4945 G-vectors     FFT dimensions: (  24,  24,  24)

     Estimated max dynamical RAM per process >      88.80 MB
     Generating pointlists ...
     new r_m :   0.3572 (alat units)  1.8767 (a.u.) for type    1

     Check: negative core charge=   -0.000006

     Initial potential from superposition of free atoms

     starting charge   31.99919, renormalised to   32.00000
     Starting wfcs are   20 randomized atomic wfcs
     Checking if some PAW data can be deallocated... 

     total cpu time spent up to now is        3.4 secs

     Self-consistent Calculation

     iteration #  1     ecut=    40.00 Ry     beta= 0.40
     Davidson diagonalization with overlap
     ethr =  1.00E-02,  avg # of iterations =  3.1

     Threshold (ethr) on eigenvalues was too large:
     Diagonalizing with lowered threshold

     Davidson diagonalization with overlap
     ethr =  5.09E-04,  avg # of iterations =  1.4

     total cpu time spent up to now is        5.3 secs

     total energy              =    -653.34747392 Ry
     Harris-Foulkes estimate   =    -653.38131078 Ry
     estimated scf accuracy    <       0.17509860 Ry

     total magnetization       =     4.56 Bohr mag/cell
     absolute magnetization    =     4.61 Bohr mag/cell

     iteration #  2     ecut=    40.00 Ry     beta= 0.40
     Davidson diagonalization with overlap
     ethr =  5.47E-04,  avg # of iterations =  2.5

     total cpu time spent up to now is        6.6 secs

     total energy              =    -653.38702169 Ry
     Harris-Foulkes estimate   =    -653.39283347 Ry
     estimated scf accuracy    <       0.04968850 Ry

     total magnetization       =     4.54 Bohr mag/cell
     absolute magnetization    =     4.66 Bohr mag/cell

     iteration #  3     ecut=    40.00 Ry     beta= 0.40
     Davidson diagonalization with overlap
     ethr =  1.55E-04,  avg # of iterations =  2.3

     total cpu time spent up to now is        7.8 secs

     total energy              =    -653.39409406 Ry
     Harris-Foulkes estimate   =    -653.39778624 Ry
     estimated scf accuracy    <       0.04594841 Ry

     total magnetization       =     4.34 Bohr mag/cell
     absolute magnetization    =     4.47 Bohr mag/cell

     iteration #  4     ecut=    40.00 Ry     beta= 0.40
     Davidson diagonalization with overlap
     ethr =  1.44E-04,  avg # of iterations =  1.4

     total cpu time spent up to now is        9.0 secs

     total energy              =    -653.40481555 Ry
     Harris-Foulkes estimate   =    -653.40362328 Ry
     estimated scf accuracy    <       0.08560814 Ry

     total magnetization       =     4.28 Bohr mag/cell
     absolute magnetization    =     4.41 Bohr mag/cell

     iteration #  5     ecut=    40.00 Ry     beta= 0.40
     Davidson diagonalization with overlap
     ethr =  1.44E-04,  avg # of iterations =  1.2

     total cpu time spent up to now is       10.6 secs

     total energy              =    -653.41126941 Ry
     Harris-Foulkes estimate   =    -653.41118440 Ry
     estimated scf accuracy    <       0.00097341 Ry

     total magnetization       =     4.05 Bohr mag/cell
     absolute magnetization    =     4.25 Bohr mag/cell

     iteration #  6     ecut=    40.00 Ry     beta= 0.40
     Davidson diagonalization with overlap
     ethr =  3.04E-06,  avg # of iterations =  2.6

     total cpu time spent up to now is       12.5 secs

     total energy              =    -653.41167130 Ry
     Harris-Foulkes estimate   =    -653.41169688 Ry
     estimated scf accuracy    <       0.00062940 Ry

     total magnetization       =     4.02 Bohr mag/cell
     absolute magnetization    =     4.20 Bohr mag/cell

     iteration #  7     ecut=    40.00 Ry     beta= 0.40
     Davidson diagonalization with overlap
     ethr =  1.97E-06,  avg # of iterations =  1.6

     total cpu time spent up to now is       14.1 secs

     total energy              =    -653.41177952 Ry
     Harris-Foulkes estimate   =    -653.41175439 Ry
     estimated scf accuracy    <       0.00003579 Ry

     total magnetization       =     4.00 Bohr mag/cell
     absolute magnetization    =     4.19 Bohr mag/cell

     iteration #  8     ecut=    40.00 Ry     beta= 0.40
     Davidson diagonalization with overlap
     ethr =  1.12E-07,  avg # of iterations =  2.2

     total cpu time spent up to now is       15.8 secs

     total energy              =    -653.41179188 Ry
     Harris-Foulkes estimate   =    -653.41178608 Ry
     estimated scf accuracy    <       0.00000747 Ry

     total magnetization       =     4.00 Bohr mag/cell
     absolute magnetization    =     4.18 Bohr mag/cell

     iteration #  9     ecut=    40.00 Ry     beta= 0.40
     Davidson diagonalization with overlap
     ethr =  2.33E-08,  avg # of iterations =  2.0

     Magnetic moment per site:
     atom:    1    charge:   14.3341    magn:    2.0286    constr:    0.0000
     atom:    2    charge:   14.3336    magn:    2.0277    constr:    0.0000

     total cpu time spent up to now is       17.5 secs

     End of self-consistent calculation

 ------ SPIN UP ------------


          k = 0.0000 0.0000 0.0000 (   619 PWs)   bands (ev):

   -68.6723 -68.4925 -34.7181 -34.7181 -34.7181 -34.4439 -34.4439 -34.4439
    10.5504  14.3731  14.3731  17.0920  17.0920  17.0920  18.5087  18.5087
    20.0772  20.0772  20.0772  29.5670

          k = 0.0000 0.0000 0.1667 (   623 PWs)   bands (ev):

   -68.6582 -68.5028 -34.7378 -34.6940 -34.6940 -34.4739 -34.4615 -34.4615
    11.1424  14.6236  14.6379  17.1061  17.1061  17.2653  18.2293  18.6446
    19.4975  19.4975  19.9051  26.6160

          k = 0.0000 0.0000 0.3333 (   630 PWs)   bands (ev):

   -68.6206 -68.5366 -34.7543 -34.7014 -34.7014 -34.5450 -34.4926 -34.4926
    12.7452  14.9914  15.2732  17.3355  17.3355  17.5305  17.7654  18.3692
    18.3692  18.9820  19.1178  22.5454

          k = 0.0000 0.0000-0.5000 (   610 PWs)   bands (ev):

   -68.5760 -68.5738 -34.6449 -34.6428 -34.5718 -34.5718 -34.5697 -34.5697
    14.5135  14.5141  16.4696  16.4713  17.7356  17.7356  17.7375  17.7375
    18.4432  18.4452  19.9308  19.9323

          k = 0.0000 0.1667 0.1667 (   625 PWs)   bands (ev):

   -68.6455 -68.5127 -34.7466 -34.7032 -34.6871 -34.5365 -34.4763 -34.4328
    11.7013  14.8235  14.9374  16.7874  17.0946  17.7595  18.3163  18.5652
    18.5709  18.9684  20.1226  26.7792

          k = 0.0000 0.1667 0.3333 (   624 PWs)   bands (ev):

   -68.6144 -68.5379 -34.7925 -34.6577 -34.6571 -34.5862 -34.5086 -34.4710
    13.1460  15.0979  15.6293  16.6786  16.9376  17.5941  18.0378  18.3016
    18.4985  18.8442  19.8259  23.0514

          k = 0.0000 0.1667-0.5000 (   622 PWs)   bands (ev):

   -68.5757 -68.5736 -34.7548 -34.7543 -34.5758 -34.5737 -34.5253 -34.5248
    14.6253  14.6256  16.3841  16.3853  16.9586  16.9590  18.0304  18.0311
    19.2485  19.2491  20.0276  20.0288

          k = 0.0000 0.3333 0.3333 (   618 PWs)   bands (ev):

   -68.5929 -68.5513 -34.8618 -34.7523 -34.6362 -34.5165 -34.5110 -34.4176
    13.9311  14.8152  16.2439  16.5614  16.6935  17.4565  18.1870  18.5376
    18.7482  19.4316  20.1523  22.8143

          k = 0.0000 0.3333-0.5000 (   610 PWs)   bands (ev):

   -68.5707 -68.5686 -34.8416 -34.8413 -34.5602 -34.5581 -34.4328 -34.4326
    14.4406  14.4407  16.2701  16.2702  17.5495  17.5508  18.4782  18.4785
    20.0394  20.0395  20.1685  20.1692

          k = 0.0000-0.5000-0.5000 (   624 PWs)   bands (ev):

   -68.5706 -68.5685 -34.8962 -34.8962 -34.5670 -34.5648 -34.4484 -34.4484
    14.2491  14.2493  15.9946  15.9946  18.4931  18.4938  18.7492  18.7512
    19.7735  19.7735  20.3006  20.3006

          k = 0.1667 0.1667 0.1667 (   609 PWs)   bands (ev):

   -68.6324 -68.5182 -34.7158 -34.7158 -34.6188 -34.5583 -34.4351 -34.4351
    12.2472  15.1668  15.1668  16.8014  16.8014  17.7180  18.3621  18.5176
    18.5176  19.5729  19.5729  27.7694

          k = 0.1667 0.1667 0.3333 (   618 PWs)   bands (ev):

   -68.6072 -68.5405 -34.7841 -34.6866 -34.6859 -34.5237 -34.5185 -34.4634
    13.5921  15.4812  15.5846  16.5148  16.5754  16.9911  18.2236  18.6817
    18.7421  19.2511  19.6275  23.8119

          k = 0.1667 0.1667-0.5000 (   616 PWs)   bands (ev):

   -68.5733 -68.5711 -34.7630 -34.7625 -34.6064 -34.6042 -34.4800 -34.4795
    14.9031  14.9032  16.1219  16.1223  16.8393  16.8399  18.2206  18.2210
    19.1798  19.1810  20.7798  20.7803

          k = 0.1667 0.3333 0.3333 (   617 PWs)   bands (ev):

   -68.5896 -68.5516 -34.8260 -34.7646 -34.6679 -34.5436 -34.4754 -34.4613
    14.4184  15.2188  16.1418  16.3147  16.4942  16.7353  18.4917  18.5796
    18.7176  19.5757  20.3748  24.0946

          k = 0.1667 0.3333-0.5000 (   614 PWs)   bands (ev):

   -68.5696 -68.5675 -34.8234 -34.8232 -34.5967 -34.5946 -34.4558 -34.4555
    14.8499  14.8502  16.0696  16.0698  17.2025  17.2035  18.5542  18.5547
    19.1101  19.1113  21.8527  21.8528

          k = 0.1667-0.5000-0.5000 (   628 PWs)   bands (ev):

   -68.5696 -68.5675 -34.8681 -34.8681 -34.5965 -34.5944 -34.4896 -34.4896
    14.6346  14.6350  15.8673  15.8673  18.1567  18.1567  18.5792  18.5801
    18.7485  18.7505  22.4246  22.4246

          k = 0.3333 0.3333 0.3333 (   627 PWs)   bands (ev):

   -68.5801 -68.5570 -34.8073 -34.7533 -34.7533 -34.5552 -34.5552 -34.4836
    15.5330  15.5925  15.9456  15.9456  16.2424  16.2424  18.6632  18.6632
    18.9075  18.9075  21.8043  26.5309

          k = 0.3333 0.3333-0.5000 (   622 PWs)   bands (ev):

   -68.5672 -68.5650 -34.7848 -34.7844 -34.6442 -34.6421 -34.5204 -34.5200
    15.4678  15.4685  16.0195  16.0203  16.5911  16.5922  18.7088  18.7099
    18.8191  18.8208  23.8279  23.8280

          k = 0.3333-0.5000-0.5000 (   632 PWs)   bands (ev):

   -68.5666 -68.5644 -34.7968 -34.7968 -34.6472 -34.6451 -34.5628 -34.5628
    15.5605  15.5614  15.8081  15.8081  16.8089  16.8089  18.7346  18.7365
    18.7702  18.7716  25.1835  25.1835

          k =-0.5000-0.5000-0.5000 (   624 PWs)   bands (ev):

   -68.5644 -68.5622 -34.6681 -34.6681 -34.6681 -34.6660 -34.6660 -34.6660
    16.1013  16.1013  16.1013  16.1027  16.1027  16.1027  18.7815  18.7815
    18.7834  18.7834  28.3909  28.3910

 ------ SPIN DOWN ----------


          k = 0.0000 0.0000 0.0000 (   619 PWs)   bands (ev):

   -66.2832 -66.0908 -32.3982 -32.3982 -32.3982 -32.0919 -32.0919 -32.0919
    10.7545  16.0362  16.0362  18.8109  18.8109  18.8109  21.0405  21.0405
    22.0551  22.0551  22.0551  29.8724

          k = 0.0000 0.0000 0.1667 (   623 PWs)   bands (ev):

   -66.2682 -66.1018 -32.4191 -32.3713 -32.3713 -32.1266 -32.1115 -32.1115
    11.3523  16.2334  16.3423  18.8065  18.8065  18.9988  20.6859  21.1972
    21.3535  21.3535  21.8628  27.3090

          k = 0.0000 0.0000 0.3333 (   630 PWs)   bands (ev):

   -66.2283 -66.1369 -32.4332 -32.3723 -32.3723 -32.2098 -32.1481 -32.1481
    13.0064  16.2821  17.1104  19.0004  19.0004  19.5401  19.7867  20.0877
    20.0877  21.0236  21.5262  23.8518

          k = 0.0000 0.0000-0.5000 (   610 PWs)   bands (ev):

   -66.1795 -66.1792 -32.3186 -32.3183 -32.2343 -32.2343 -32.2341 -32.2341
    15.0968  15.0968  18.4901  18.4901  19.3925  19.3925  19.3927  19.3927
    20.2807  20.2809  22.1207  22.1208

          k = 0.0000 0.1667 0.1667 (   625 PWs)   bands (ev):

   -66.2547 -66.1123 -32.4318 -32.3785 -32.3587 -32.1972 -32.1280 -32.0812
    11.9223  16.4939  16.5578  18.4531  18.7687  19.5285  20.3298  20.7374
    20.7540  21.1051  22.1077  27.5813

          k = 0.0000 0.1667 0.3333 (   624 PWs)   bands (ev):

   -66.2212 -66.1392 -32.4787 -32.3301 -32.3275 -32.2512 -32.1646 -32.1217
    13.4558  16.4722  17.3009  18.3063  18.5806  19.2544  20.1023  20.2652
    20.3223  21.3799  21.7834  24.3242

          k = 0.0000 0.1667-0.5000 (   622 PWs)   bands (ev):

   -66.1785 -66.1783 -32.4369 -32.4369 -32.2375 -32.2373 -32.1823 -32.1822
    15.3335  15.3335  18.1269  18.1269  18.5766  18.5767  19.9523  19.9524
    21.1393  21.1394  22.1104  22.1105

          k = 0.0000 0.3333 0.3333 (   618 PWs)   bands (ev):

   -66.1986 -66.1532 -32.5537 -32.4377 -32.3023 -32.1754 -32.1682 -32.0663
    14.5249  16.1626  17.8186  18.0606  18.2808  18.6342  20.2265  20.8210
    21.3100  21.3365  22.1548  24.0168

          k = 0.0000 0.3333-0.5000 (   610 PWs)   bands (ev):

   -66.1735 -66.1733 -32.5337 -32.5336 -32.2219 -32.2217 -32.0840 -32.0840
    15.4984  15.4984  17.8260  17.8260  18.8371  18.8371  20.6868  20.6868
    21.9895  21.9896  22.0150  22.0150

          k = 0.0000-0.5000-0.5000 (   624 PWs)   bands (ev):

   -66.1727 -66.1725 -32.5926 -32.5926 -32.2278 -32.2275 -32.0970 -32.0970
    15.4152  15.4153  17.5295  17.5295  19.9575  19.9575  20.8197  20.8197
    21.3405  21.3406  22.3111  22.3111

          k = 0.1667 0.1667 0.1667 (   609 PWs)   bands (ev):

   -66.2415 -66.1187 -32.3981 -32.3981 -32.2844 -32.2253 -32.0860 -32.0860
    12.4787  16.8021  16.8021  18.4411  18.4411  19.3152  20.1426  20.9992
    20.9992  21.4732  21.4732  28.6725

          k = 0.1667 0.1667 0.3333 (   618 PWs)   bands (ev):

   -66.2135 -66.1421 -32.4703 -32.3638 -32.3602 -32.1836 -32.1749 -32.1143
    13.9275  16.8055  17.2557  18.1325  18.1390  18.5776  20.5406  20.5776
    20.9685  21.3539  21.6046  25.0925

          k = 0.1667 0.1667-0.5000 (   616 PWs)   bands (ev):

   -66.1761 -66.1759 -32.4477 -32.4476 -32.2709 -32.2706 -32.1338 -32.1338
    15.6565  15.6565  17.7844  17.7845  18.3430  18.3430  20.2812  20.2813
    21.3854  21.3855  22.5681  22.5681

          k = 0.1667 0.3333 0.3333 (   617 PWs)   bands (ev):

   -66.1946 -66.1538 -32.5153 -32.4500 -32.3400 -32.2028 -32.1303 -32.1125
    15.0131  16.5673  17.6797  17.8530  17.9332  18.0415  20.6846  20.8745
    21.2699  21.6413  22.1223  25.2966

          k = 0.1667 0.3333-0.5000 (   614 PWs)   bands (ev):

   -66.1722 -66.1719 -32.5137 -32.5137 -32.2610 -32.2608 -32.1080 -32.1080
    15.9282  15.9283  17.5836  17.5836  18.3916  18.3916  20.8294  20.8294
    21.4672  21.4673  23.3822  23.3822

          k = 0.1667-0.5000-0.5000 (   628 PWs)   bands (ev):

   -66.1715 -66.1713 -32.5613 -32.5613 -32.2600 -32.2598 -32.1405 -32.1405
    15.8245  15.8246  17.3605  17.3605  19.0343  19.0343  20.9539  20.9539
    21.3436  21.3437  23.7355  23.7355

          k = 0.3333 0.3333 0.3333 (   627 PWs)   bands (ev):

   -66.1839 -66.1594 -32.4934 -32.4340 -32.4340 -32.2136 -32.2136 -32.1375
    16.1443  16.9609  17.4018  17.4018  17.6060  17.6060  21.1802  21.1802
    21.1862  21.1862  23.3833  27.6041

          k = 0.3333 0.3333-0.5000 (   622 PWs)   bands (ev):

   -66.1692 -66.1690 -32.4705 -32.4704 -32.3127 -32.3125 -32.1761 -32.1760
    16.6866  16.6867  17.3937  17.3939  17.7351  17.7352  21.1431  21.1432
    21.3364  21.3365  25.1329  25.1329

          k = 0.3333-0.5000-0.5000 (   632 PWs)   bands (ev):

   -66.1682 -66.1680 -32.4806 -32.4806 -32.3152 -32.3150 -32.2225 -32.2225
    16.7956  16.7957  17.1947  17.1947  17.9203  17.9203  21.2745  21.2746
    21.3376  21.3377  26.2461  26.2461

          k =-0.5000-0.5000-0.5000 (   624 PWs)   bands (ev):

   -66.1659 -66.1657 -32.3388 -32.3388 -32.3388 -32.3386 -32.3386 -32.3386
    17.3540  17.3540  17.3540  17.3541  17.3541  17.3541  21.3872  21.3872
    21.3873  21.3873  29.2847  29.2848

     the Fermi energy is    19.6970 ev

!    total energy              =    -653.41179826 Ry
     Harris-Foulkes estimate   =    -653.41179323 Ry
     estimated scf accuracy    <       0.00000038 Ry

     total all-electron energy =     -5086.063217 Ry

     The total energy is the sum of the following terms:

     one-electron contribution =    -207.81272797 Ry
     hartree contribution      =     125.31524805 Ry
     xc contribution           =     -54.87881532 Ry
     ewald contribution        =    -354.67960140 Ry
     one-center paw contrib.   =    -161.35509042 Ry
     smearing contrib. (-TS)   =      -0.00081120 Ry

     total magnetization       =     4.00 Bohr mag/cell
     absolute magnetization    =     4.18 Bohr mag/cell

     convergence has been achieved in   9 iterations

     Forces acting on atoms (cartesian axes, Ry/au):

     atom    1 type  1   force =     0.00000000    0.00000000    0.00000000
     atom    2 type  1   force =     0.00000000    0.00000000    0.00000000

     Total force =     0.000000     Total SCF correction =     0.000000


     Computing stress (Cartesian axis) and pressure

          total   stress  (Ry/bohr**3)                   (kbar)     P=-2759.36
  -0.01875772   0.00000000   0.00000000      -2759.36      0.00      0.00
   0.00000000  -0.01875772   0.00000000          0.00  -2759.36      0.00
   0.00000000   0.00000000  -0.01875772          0.00      0.00  -2759.36


     Writing output data file pwscf.save\

     init_run     :      7.58s CPU      1.40s WALL (       1 calls)
     electrons    :     84.02s CPU     14.14s WALL (       1 calls)
     forces       :      1.23s CPU      0.17s WALL (       1 calls)
     stress       :      7.36s CPU      1.10s WALL (       1 calls)

     Called by init_run:
     wfcinit      :      1.39s CPU      0.26s WALL (       1 calls)
     potinit      :      3.05s CPU      0.43s WALL (       1 calls)
     hinit0       :      2.48s CPU      0.61s WALL (       1 calls)

     Called by electrons:
     c_bands      :     36.31s CPU      6.33s WALL (      10 calls)
     sum_band     :     16.34s CPU      2.62s WALL (      10 calls)
     v_of_rho     :      2.84s CPU      0.32s WALL (      10 calls)
     newd         :      3.77s CPU      0.56s WALL (      10 calls)
     PAW_pot      :     28.16s CPU      4.73s WALL (      10 calls)
     mix_rho      :      0.00s CPU      0.02s WALL (      10 calls)

     Called by c_bands:
     init_us_2    :      1.28s CPU      0.21s WALL (     920 calls)
     cegterg      :     33.27s CPU      5.91s WALL (     400 calls)

     Called by sum_band:
     sum_band:bec :      0.08s CPU      0.04s WALL (     400 calls)
     addusdens    :      6.72s CPU      1.02s WALL (      10 calls)

     Called by *egterg:
     h_psi        :     28.52s CPU      4.93s WALL (    1256 calls)
     s_psi        :      0.27s CPU      0.05s WALL (    1256 calls)
     g_psi        :      0.34s CPU      0.04s WALL (     816 calls)
     cdiaghg      :      2.98s CPU      0.56s WALL (    1176 calls)

     Called by h_psi:
     h_psi:pot    :     28.20s CPU      4.85s WALL (    1256 calls)
     h_psi:calbec :      0.56s CPU      0.06s WALL (    1256 calls)
     vloc_psi     :     27.30s CPU      4.72s WALL (    1256 calls)
     add_vuspsi   :      0.27s CPU      0.06s WALL (    1256 calls)

     General routines
     calbec       :      1.03s CPU      0.11s WALL (    1856 calls)
     fft          :      0.00s CPU      0.03s WALL (     290 calls)
     ffts         :      0.09s CPU      0.00s WALL (      40 calls)
     fftw         :      9.92s CPU      1.65s WALL (   45646 calls)
     interpolate  :      0.00s CPU      0.01s WALL (      20 calls)

     Parallel routines

     PWSCF        :   1m42.88s CPU     18.95s WALL


   This run was terminated on:  14: 1:45  15Jul2021            

=------------------------------------------------------------------------------=
   JOB DONE.
=------------------------------------------------------------------------------=
